<?xml version="1.0" encoding="UTF-8"?>

<!-- generated on 2025-05-20 17:01:39 by Eclipse SUMO sumo Version 1.20.0
<configuration xmlns:xsi="http://www.w3.org/2001/XMLSchema-instance" xsi:noNamespaceSchemaLocation="http://sumo.dlr.de/xsd/sumoConfiguration.xsd">

    <input>
        <net-file value="resco_benchmark\environments/cologne8/cologne8.net.xml"/>
        <route-files value="resco_benchmark\environments/cologne8/cologne8.rou.xml"/>
    </input>

    <output>
        <tripinfo-output value="C:\Users\skang\Desktop\최석환\강의\무인항공딥러닝개론\results\IPPO-tr0-cologne8-0-drq_norm-wait_norm\tripinfo_8.xml"/>
        <tripinfo-output.write-unfinished value="true"/>
        <vehroute-output value="C:\Users\skang\Desktop\최석환\강의\무인항공딥러닝개론\results\IPPO-tr0-cologne8-0-drq_norm-wait_norm\route_8.xml"/>
        <vehroute-output.sorted value="True"/>
        <vehroute-output.write-unfinished value="True"/>
        <collision-output value="C:\Users\skang\Desktop\최석환\강의\무인항공딥러닝개론\results\IPPO-tr0-cologne8-0-drq_norm-wait_norm\coll_8.xml"/>
        <statistic-output value="C:\Users\skang\Desktop\최석환\강의\무인항공딥러닝개론\results\IPPO-tr0-cologne8-0-drq_norm-wait_norm\stats_8.xml"/>
    </output>

    <time>
        <begin value="25200"/>
        <end value="28800"/>
    </time>

    <processing>
        <time-to-teleport value="-1"/>
    </processing>

    <report>
        <no-warnings value="True"/>
        <no-step-log value="True"/>
    </report>

    <traci_server>
        <remote-port value="56327"/>
    </traci_server>

    <random_number>
        <random value="true"/>
    </random_number>

</configuration>
-->

<tripinfos xmlns:xsi="http://www.w3.org/2001/XMLSchema-instance" xsi:noNamespaceSchemaLocation="http://sumo.dlr.de/xsd/tripinfo_file.xsd">
    <tripinfo id="142890_415_0" depart="25218.00" departLane="-23283579#1_0" departPos="4.40" departSpeed="0.00" departDelay="0.00" arrival="25225.00" arrivalLane="23283579#1_0" arrivalPos="22.22" arrivalSpeed="11.14" duration="7.00" routeLength="44.72" waitingTime="0.00" waitingCount="0" stopTime="0.00" timeLoss="4.00" rerouteNo="0" devices="vehroute_142890_415_0 tripinfo_142890_415_0 routing_142890_415_0" vType="pkw" speedFactor="1.07" vaporized=""/>
    <tripinfo id="137959_412_0" depart="25209.00" departLane="-186623965#18_0" departPos="4.40" departSpeed="0.00" departDelay="0.00" arrival="25240.00" arrivalLane="-22917421#4_0" arrivalPos="96.26" arrivalSpeed="7.89" duration="31.00" routeLength="263.02" waitingTime="0.00" waitingCount="0" stopTime="0.00" timeLoss="5.23" rerouteNo="0" devices="vehroute_137959_412_0 tripinfo_137959_412_0 routing_137959_412_0" vType="pkw" speedFactor="0.96" vaporized=""/>
    <tripinfo id="155570_420_0" depart="25200.00" departLane="-28675510#11_0" departPos="4.40" departSpeed="0.00" departDelay="0.00" arrival="25241.00" arrivalLane="28675510#7_0" arrivalPos="257.94" arrivalSpeed="14.00" duration="41.00" routeLength="516.12" waitingTime="0.00" waitingCount="0" stopTime="0.00" timeLoss="5.81" rerouteNo="0" devices="vehroute_155570_420_0 tripinfo_155570_420_0 routing_155570_420_0" vType="pkw" speedFactor="1.08" vaporized=""/>
    <tripinfo id="137312_412_0" depart="25200.00" departLane="-23283579#1_0" departPos="4.40" departSpeed="0.00" departDelay="0.00" arrival="25247.00" arrivalLane="23283436_0" arrivalPos="65.76" arrivalSpeed="15.49" duration="47.00" routeLength="404.67" waitingTime="10.00" waitingCount="1" stopTime="0.00" timeLoss="21.09" rerouteNo="1" devices="vehroute_137312_412_0 tripinfo_137312_412_0 routing_137312_412_0" vType="pkw" speedFactor="1.15" vaporized=""/>
    <tripinfo id="134603_411_0" depart="25206.00" departLane="-28675510#11_0" departPos="4.40" departSpeed="0.00" departDelay="0.00" arrival="25250.00" arrivalLane="28675510#7_0" arrivalPos="257.94" arrivalSpeed="13.92" duration="44.00" routeLength="516.12" waitingTime="0.00" waitingCount="0" stopTime="0.00" timeLoss="6.97" rerouteNo="0" devices="vehroute_134603_411_0 tripinfo_134603_411_0 routing_134603_411_0" vType="pkw" speedFactor="1.01" vaporized=""/>
    <tripinfo id="140143_414_0" depart="25211.00" departLane="-28675510#11_0" departPos="4.40" departSpeed="0.00" departDelay="1.00" arrival="25255.00" arrivalLane="28675510#7_0" arrivalPos="257.94" arrivalSpeed="12.68" duration="44.00" routeLength="516.12" waitingTime="0.00" waitingCount="0" stopTime="0.00" timeLoss="4.82" rerouteNo="0" devices="vehroute_140143_414_0 tripinfo_140143_414_0 routing_140143_414_0" vType="pkw" speedFactor="0.96" vaporized=""/>
    <tripinfo id="114597_403_0" depart="25201.00" departLane="22917421#3_0" departPos="4.40" departSpeed="0.00" departDelay="0.00" arrival="25258.00" arrivalLane="-186623965#14_0" arrivalPos="159.69" arrivalSpeed="13.92" duration="57.00" routeLength="476.78" waitingTime="4.00" waitingCount="2" stopTime="0.00" timeLoss="19.63" rerouteNo="1" devices="vehroute_114597_403_0 tripinfo_114597_403_0 routing_114597_403_0" vType="pkw" speedFactor="1.07" vaporized=""/>
    <tripinfo id="135663_411_0" depart="25217.00" departLane="-28675510#11_0" departPos="4.40" departSpeed="0.00" departDelay="3.00" arrival="25266.00" arrivalLane="28675510#7_0" arrivalPos="257.94" arrivalSpeed="13.75" duration="49.00" routeLength="516.12" waitingTime="3.00" waitingCount="1" stopTime="0.00" timeLoss="14.52" rerouteNo="0" devices="vehroute_135663_411_0 tripinfo_135663_411_0 routing_135663_411_0" vType="pkw" speedFactor="1.08" vaporized=""/>
    <tripinfo id="119181_405_0" depart="25226.00" departLane="186623965#9_0" departPos="4.40" departSpeed="0.00" departDelay="0.00" arrival="25267.00" arrivalLane="42925825#0_0" arrivalPos="254.17" arrivalSpeed="13.98" duration="41.00" routeLength="418.48" waitingTime="0.00" waitingCount="0" stopTime="0.00" timeLoss="11.54" rerouteNo="0" devices="vehroute_119181_405_0 tripinfo_119181_405_0 routing_119181_405_0" vType="pkw" speedFactor="1.05" vaporized=""/>
    <tripinfo id="133416_410_0" depart="25229.00" departLane="186623965#9_0" departPos="4.40" departSpeed="0.00" departDelay="1.00" arrival="25269.00" arrivalLane="42925825#0_0" arrivalPos="254.17" arrivalSpeed="14.24" duration="40.00" routeLength="418.48" waitingTime="0.00" waitingCount="0" stopTime="0.00" timeLoss="10.54" rerouteNo="0" devices="vehroute_133416_410_0 tripinfo_133416_410_0 routing_133416_410_0" vType="pkw" speedFactor="1.05" vaporized=""/>
    <tripinfo id="149045_417_0" depart="25219.00" departLane="-28675510#11_0" departPos="4.40" departSpeed="0.00" departDelay="2.00" arrival="25272.00" arrivalLane="28675510#7_0" arrivalPos="257.94" arrivalSpeed="12.11" duration="53.00" routeLength="516.12" waitingTime="0.00" waitingCount="0" stopTime="0.00" timeLoss="10.93" rerouteNo="0" devices="vehroute_149045_417_0 tripinfo_149045_417_0 routing_149045_417_0" vType="pkw" speedFactor="0.90" vaporized=""/>
    <tripinfo id="161942_421_0" depart="25233.00" departLane="-42925825#2_0" departPos="4.40" departSpeed="0.00" departDelay="0.00" arrival="25275.00" arrivalLane="42925825#0_0" arrivalPos="254.17" arrivalSpeed="13.60" duration="42.00" routeLength="508.64" waitingTime="0.00" waitingCount="0" stopTime="0.00" timeLoss="4.90" rerouteNo="0" devices="vehroute_161942_421_0 tripinfo_161942_421_0 routing_161942_421_0" vType="pkw" speedFactor="0.99" vaporized=""/>
    <tripinfo id="140525_414_0" depart="25221.00" departLane="186623965#9_0" departPos="4.40" departSpeed="0.00" departDelay="0.00" arrival="25278.00" arrivalLane="186623965#17_0" arrivalPos="143.63" arrivalSpeed="14.40" duration="57.00" routeLength="527.61" waitingTime="4.00" waitingCount="1" stopTime="0.00" timeLoss="20.47" rerouteNo="1" devices="vehroute_140525_414_0 tripinfo_140525_414_0 routing_140525_414_0" vType="pkw" speedFactor="1.05" vaporized=""/>
    <tripinfo id="76230_386_0" depart="25204.00" departLane="-23283579#1_0" departPos="4.40" departSpeed="0.00" departDelay="0.00" arrival="25288.00" arrivalLane="297047309#0_0" arrivalPos="91.17" arrivalSpeed="13.52" duration="84.00" routeLength="656.20" waitingTime="6.00" waitingCount="1" stopTime="0.00" timeLoss="20.84" rerouteNo="1" devices="vehroute_76230_386_0 tripinfo_76230_386_0 routing_76230_386_0" vType="pkw" speedFactor="1.04" vaporized=""/>
    <tripinfo id="110248_401_0" depart="25206.00" departLane="-23283579#1_0" departPos="4.40" departSpeed="0.00" departDelay="0.00" arrival="25289.00" arrivalLane="297047309#0_0" arrivalPos="91.17" arrivalSpeed="15.35" duration="83.00" routeLength="656.20" waitingTime="6.00" waitingCount="1" stopTime="0.00" timeLoss="26.67" rerouteNo="1" devices="vehroute_110248_401_0 tripinfo_110248_401_0 routing_110248_401_0" vType="pkw" speedFactor="1.16" vaporized=""/>
    <tripinfo id="138070_412_0" depart="25229.00" departLane="22917421#3_0" departPos="4.40" departSpeed="0.00" departDelay="0.00" arrival="25293.00" arrivalLane="186623965#17_0" arrivalPos="143.63" arrivalSpeed="15.10" duration="64.00" routeLength="257.42" waitingTime="32.00" waitingCount="2" stopTime="0.00" timeLoss="42.64" rerouteNo="0" devices="vehroute_138070_412_0 tripinfo_138070_412_0 routing_138070_412_0" vType="pkw" speedFactor="1.11" vaporized=""/>
    <tripinfo id="111571_401_0" depart="25267.00" departLane="-353069169#0_0" departPos="4.40" departSpeed="0.00" departDelay="0.00" arrival="25294.00" arrivalLane="24487264_0" arrivalPos="166.35" arrivalSpeed="15.20" duration="27.00" routeLength="286.19" waitingTime="0.00" waitingCount="0" stopTime="0.00" timeLoss="6.92" rerouteNo="1" devices="vehroute_111571_401_0 tripinfo_111571_401_0 routing_111571_401_0" vType="pkw" speedFactor="1.11" vaporized=""/>
    <tripinfo id="153496_420_0" depart="25232.00" departLane="22917421#3_0" departPos="4.40" departSpeed="0.00" departDelay="0.00" arrival="25303.00" arrivalLane="186623965#17_0" arrivalPos="143.63" arrivalSpeed="15.75" duration="71.00" routeLength="257.42" waitingTime="37.00" waitingCount="3" stopTime="0.00" timeLoss="50.33" rerouteNo="0" devices="vehroute_153496_420_0 tripinfo_153496_420_0 routing_153496_420_0" vType="pkw" speedFactor="1.16" vaporized=""/>
    <tripinfo id="121484_406_0" depart="25268.00" departLane="-23283579#1_0" departPos="4.40" departSpeed="0.00" departDelay="0.00" arrival="25303.00" arrivalLane="133081987#3_0" arrivalPos="99.94" arrivalSpeed="15.20" duration="35.00" routeLength="434.85" waitingTime="0.00" waitingCount="0" stopTime="0.00" timeLoss="6.04" rerouteNo="1" devices="vehroute_121484_406_0 tripinfo_121484_406_0 routing_121484_406_0" vType="pkw" speedFactor="1.12" vaporized=""/>
    <tripinfo id="141355_415_0" depart="25232.00" departLane="-186623965#18_0" departPos="4.40" departSpeed="0.00" departDelay="0.00" arrival="25305.00" arrivalLane="42925825#0_0" arrivalPos="254.17" arrivalSpeed="13.20" duration="73.00" routeLength="625.62" waitingTime="15.00" waitingCount="1" stopTime="0.00" timeLoss="26.58" rerouteNo="1" devices="vehroute_141355_415_0 tripinfo_141355_415_0 routing_141355_415_0" vType="pkw" speedFactor="0.99" vaporized=""/>
    <tripinfo id="131071_409_0" depart="25236.00" departLane="-186623965#18_0" departPos="4.40" departSpeed="0.00" departDelay="0.00" arrival="25308.00" arrivalLane="42925825#0_0" arrivalPos="254.17" arrivalSpeed="12.58" duration="72.00" routeLength="625.62" waitingTime="9.00" waitingCount="1" stopTime="0.00" timeLoss="21.90" rerouteNo="1" devices="vehroute_131071_409_0 tripinfo_131071_409_0 routing_131071_409_0" vType="pkw" speedFactor="0.91" vaporized=""/>
    <tripinfo id="126900_407_0" depart="25239.00" departLane="-186623965#18_0" departPos="4.40" departSpeed="0.00" departDelay="0.00" arrival="25309.00" arrivalLane="42925825#0_0" arrivalPos="254.17" arrivalSpeed="14.34" duration="70.00" routeLength="625.62" waitingTime="9.00" waitingCount="1" stopTime="0.00" timeLoss="30.01" rerouteNo="1" devices="vehroute_126900_407_0 tripinfo_126900_407_0 routing_126900_407_0" vType="pkw" speedFactor="1.13" vaporized=""/>
    <tripinfo id="150593_418_0" depart="25297.00" departLane="22959552#0_0" departPos="4.40" departSpeed="0.00" departDelay="0.00" arrival="25310.00" arrivalLane="22959552#0_0" arrivalPos="91.39" arrivalSpeed="8.17" duration="13.00" routeLength="86.99" waitingTime="0.00" waitingCount="0" stopTime="0.00" timeLoss="2.22" rerouteNo="1" devices="vehroute_150593_418_0 tripinfo_150593_418_0 routing_150593_418_0" vType="pkw" speedFactor="1.02" vaporized=""/>
    <tripinfo id="163799_422_0" depart="25256.00" departLane="-186623965#18_0" departPos="4.40" departSpeed="0.00" departDelay="1.00" arrival="25312.00" arrivalLane="-22917421#4_0" arrivalPos="96.26" arrivalSpeed="8.92" duration="56.00" routeLength="263.02" waitingTime="13.00" waitingCount="1" stopTime="0.00" timeLoss="32.80" rerouteNo="0" devices="vehroute_163799_422_0 tripinfo_163799_422_0 routing_163799_422_0" vType="pkw" speedFactor="1.09" vaporized=""/>
    <tripinfo id="127809_407_0" depart="25258.00" departLane="-23283579#1_0" departPos="4.40" departSpeed="0.00" departDelay="1.00" arrival="25316.00" arrivalLane="23285888#0_0" arrivalPos="109.58" arrivalSpeed="6.93" duration="58.00" routeLength="410.95" waitingTime="0.00" waitingCount="0" stopTime="0.00" timeLoss="8.59" rerouteNo="1" devices="vehroute_127809_407_0 tripinfo_127809_407_0 routing_127809_407_0" vType="pkw" speedFactor="0.91" vaporized=""/>
    <tripinfo id="126698_407_0" depart="25242.00" departLane="-186623965#18_0" departPos="4.40" departSpeed="0.00" departDelay="1.00" arrival="25320.00" arrivalLane="42925825#0_0" arrivalPos="254.17" arrivalSpeed="14.70" duration="78.00" routeLength="625.62" waitingTime="18.00" waitingCount="2" stopTime="0.00" timeLoss="36.95" rerouteNo="1" devices="vehroute_126698_407_0 tripinfo_126698_407_0 routing_126698_407_0" vType="pkw" speedFactor="1.11" vaporized=""/>
    <tripinfo id="131243_409_0" depart="25248.00" departLane="-186623965#18_0" departPos="4.40" departSpeed="0.00" departDelay="0.00" arrival="25320.00" arrivalLane="-186623965#14_1" arrivalPos="159.69" arrivalSpeed="11.16" duration="72.00" routeLength="528.65" waitingTime="9.00" waitingCount="2" stopTime="0.00" timeLoss="26.32" rerouteNo="1" devices="vehroute_131243_409_0 tripinfo_131243_409_0 routing_131243_409_0" vType="pkw" speedFactor="0.84" vaporized=""/>
    <tripinfo id="91556_392_0" depart="25270.00" departLane="-23283579#1_0" departPos="4.40" departSpeed="0.00" departDelay="0.00" arrival="25322.00" arrivalLane="23840972_0" arrivalPos="97.66" arrivalSpeed="7.93" duration="52.00" routeLength="525.30" waitingTime="0.00" waitingCount="0" stopTime="0.00" timeLoss="8.57" rerouteNo="1" devices="vehroute_91556_392_0 tripinfo_91556_392_0 routing_91556_392_0" vType="pkw" speedFactor="1.08" vaporized=""/>
    <tripinfo id="155353_420_0" depart="25234.00" departLane="22917421#3_0" departPos="4.40" departSpeed="0.00" departDelay="0.00" arrival="25324.00" arrivalLane="186623965#17_0" arrivalPos="143.63" arrivalSpeed="13.11" duration="90.00" routeLength="257.42" waitingTime="48.00" waitingCount="4" stopTime="0.00" timeLoss="65.64" rerouteNo="0" devices="vehroute_155353_420_0 tripinfo_155353_420_0 routing_155353_420_0" vType="pkw" speedFactor="0.96" vaporized=""/>
    <tripinfo id="113370_402_0" depart="25249.00" departLane="186623965#9_0" departPos="4.40" departSpeed="0.00" departDelay="0.00" arrival="25325.00" arrivalLane="42925825#0_0" arrivalPos="254.17" arrivalSpeed="13.69" duration="76.00" routeLength="418.48" waitingTime="37.00" waitingCount="1" stopTime="0.00" timeLoss="45.37" rerouteNo="0" devices="vehroute_113370_402_0 tripinfo_113370_402_0 routing_113370_402_0" vType="pkw" speedFactor="1.00" vaporized=""/>
    <tripinfo id="145282_416_0" depart="25259.00" departLane="186623965#9_0" departPos="4.40" departSpeed="0.00" departDelay="0.00" arrival="25328.00" arrivalLane="42925825#0_0" arrivalPos="254.17" arrivalSpeed="11.95" duration="69.00" routeLength="418.48" waitingTime="26.00" waitingCount="1" stopTime="0.00" timeLoss="36.90" rerouteNo="0" devices="vehroute_145282_416_0 tripinfo_145282_416_0 routing_145282_416_0" vType="pkw" speedFactor="0.94" vaporized=""/>
    <tripinfo id="156485_420_0" depart="25205.00" departLane="22959552#0_0" departPos="4.40" departSpeed="0.00" departDelay="0.00" arrival="25335.00" arrivalLane="28675510#7_0" arrivalPos="257.94" arrivalSpeed="15.56" duration="130.00" routeLength="1112.54" waitingTime="21.00" waitingCount="1" stopTime="0.00" timeLoss="38.68" rerouteNo="1" devices="vehroute_156485_420_0 tripinfo_156485_420_0 routing_156485_420_0" vType="pkw" speedFactor="1.13" vaporized=""/>
    <tripinfo id="166162_424_0" depart="25233.00" departLane="22959550#0_0" departPos="4.40" departSpeed="0.00" departDelay="0.00" arrival="25337.00" arrivalLane="28675510#7_0" arrivalPos="257.94" arrivalSpeed="15.63" duration="104.00" routeLength="903.30" waitingTime="13.00" waitingCount="1" stopTime="0.00" timeLoss="30.08" rerouteNo="1" devices="vehroute_166162_424_0 tripinfo_166162_424_0 routing_166162_424_0" vType="pkw" speedFactor="1.15" vaporized=""/>
    <tripinfo id="118788_405_0" depart="25247.00" departLane="22917421#3_0" departPos="4.40" departSpeed="0.00" departDelay="0.00" arrival="25338.00" arrivalLane="186623965#17_0" arrivalPos="143.63" arrivalSpeed="13.29" duration="91.00" routeLength="257.42" waitingTime="34.00" waitingCount="5" stopTime="0.00" timeLoss="67.52" rerouteNo="0" devices="vehroute_118788_405_0 tripinfo_118788_405_0 routing_118788_405_0" vType="pkw" speedFactor="1.02" vaporized=""/>
    <tripinfo id="146152_416_0" depart="25210.00" departLane="25166682#0_0" departPos="4.40" departSpeed="0.00" departDelay="0.00" arrival="25340.00" arrivalLane="28675510#7_0" arrivalPos="257.94" arrivalSpeed="13.84" duration="130.00" routeLength="1219.50" waitingTime="4.00" waitingCount="1" stopTime="0.00" timeLoss="25.32" rerouteNo="1" devices="vehroute_146152_416_0 tripinfo_146152_416_0 routing_146152_416_0" vType="pkw" speedFactor="1.03" vaporized=""/>
    <tripinfo id="144617_416_0" depart="25256.00" departLane="22917421#3_0" departPos="4.40" departSpeed="0.00" departDelay="0.00" arrival="25343.00" arrivalLane="186623965#17_0" arrivalPos="143.63" arrivalSpeed="10.30" duration="87.00" routeLength="257.42" waitingTime="28.00" waitingCount="4" stopTime="0.00" timeLoss="58.48" rerouteNo="0" devices="vehroute_144617_416_0 tripinfo_144617_416_0 routing_144617_416_0" vType="pkw" speedFactor="0.83" vaporized=""/>
    <tripinfo id="152801_419_0" depart="25299.00" departLane="-297047307_0" departPos="4.40" departSpeed="0.00" departDelay="0.00" arrival="25343.00" arrivalLane="297047309#0_0" arrivalPos="91.17" arrivalSpeed="10.66" duration="44.00" routeLength="439.92" waitingTime="0.00" waitingCount="0" stopTime="0.00" timeLoss="5.84" rerouteNo="1" devices="vehroute_152801_419_0 tripinfo_152801_419_0 routing_152801_419_0" vType="pkw" speedFactor="0.85" vaporized=""/>
    <tripinfo id="171184_426_0" depart="25326.00" departLane="133081987#0_0" departPos="4.40" departSpeed="0.00" departDelay="0.00" arrival="25343.00" arrivalLane="23283436_0" arrivalPos="65.76" arrivalSpeed="12.40" duration="17.00" routeLength="154.99" waitingTime="0.00" waitingCount="0" stopTime="0.00" timeLoss="4.44" rerouteNo="0" devices="vehroute_171184_426_0 tripinfo_171184_426_0 routing_171184_426_0" vType="pkw" speedFactor="0.91" vaporized=""/>
    <tripinfo id="162497_421_0" depart="25273.00" departLane="22917421#3_0" departPos="4.40" departSpeed="0.00" departDelay="0.00" arrival="25345.00" arrivalLane="186623965#17_0" arrivalPos="143.63" arrivalSpeed="12.38" duration="72.00" routeLength="257.42" waitingTime="19.00" waitingCount="3" stopTime="0.00" timeLoss="45.56" rerouteNo="0" devices="vehroute_162497_421_0 tripinfo_162497_421_0 routing_162497_421_0" vType="pkw" speedFactor="0.91" vaporized=""/>
    <tripinfo id="134428_411_0" depart="25237.00" departLane="-28675510#11_0" departPos="4.40" departSpeed="0.00" departDelay="0.00" arrival="25350.00" arrivalLane="28675510#7_0" arrivalPos="257.94" arrivalSpeed="9.65" duration="113.00" routeLength="516.12" waitingTime="52.00" waitingCount="2" stopTime="0.00" timeLoss="65.01" rerouteNo="0" devices="vehroute_134428_411_0 tripinfo_134428_411_0 routing_134428_411_0" vType="pkw" speedFactor="0.78" vaporized=""/>
    <tripinfo id="163043_422_0" depart="25214.00" departLane="-28675510#11_0" departPos="4.40" departSpeed="0.00" departDelay="2.00" arrival="25351.00" arrivalLane="8716827#0_0" arrivalPos="109.12" arrivalSpeed="7.66" duration="137.00" routeLength="1154.53" waitingTime="31.00" waitingCount="2" stopTime="0.00" timeLoss="52.07" rerouteNo="1" devices="vehroute_163043_422_0 tripinfo_163043_422_0 routing_163043_422_0" vType="pkw" speedFactor="1.05" vaporized=""/>
    <tripinfo id="117517_404_0" depart="25224.00" departLane="-28675510#11_0" departPos="4.40" departSpeed="0.00" departDelay="0.00" arrival="25357.00" arrivalLane="-186623965#14_1" arrivalPos="159.69" arrivalSpeed="14.36" duration="133.00" routeLength="1202.17" waitingTime="0.00" waitingCount="0" stopTime="0.00" timeLoss="31.26" rerouteNo="1" devices="vehroute_117517_404_0 tripinfo_117517_404_0 routing_117517_404_0" vType="pkw" speedFactor="1.12" vaporized=""/>
    <tripinfo id="166776_424_0" depart="25208.00" departLane="-28675510#11_0" departPos="4.40" departSpeed="0.00" departDelay="0.00" arrival="25358.00" arrivalLane="-186623965#14_0" arrivalPos="159.69" arrivalSpeed="15.36" duration="150.00" routeLength="1202.17" waitingTime="25.00" waitingCount="2" stopTime="0.00" timeLoss="46.92" rerouteNo="1" devices="vehroute_166776_424_0 tripinfo_166776_424_0 routing_166776_424_0" vType="pkw" speedFactor="1.11" vaporized=""/>
    <tripinfo id="146111_416_0" depart="25222.00" departLane="-28675510#11_0" departPos="4.40" departSpeed="0.00" departDelay="1.00" arrival="25361.00" arrivalLane="-186623965#14_1" arrivalPos="159.69" arrivalSpeed="12.53" duration="139.00" routeLength="1202.17" waitingTime="0.00" waitingCount="0" stopTime="0.00" timeLoss="20.56" rerouteNo="1" devices="vehroute_146111_416_0 tripinfo_146111_416_0 routing_146111_416_0" vType="pkw" speedFactor="0.96" vaporized=""/>
    <tripinfo id="159622_421_0" depart="25254.00" departLane="-186623965#18_0" departPos="4.40" departSpeed="0.00" departDelay="3.00" arrival="25362.00" arrivalLane="42925825#0_0" arrivalPos="254.17" arrivalSpeed="9.90" duration="108.00" routeLength="625.62" waitingTime="30.00" waitingCount="3" stopTime="0.00" timeLoss="48.87" rerouteNo="1" devices="vehroute_159622_421_0 tripinfo_159622_421_0 routing_159622_421_0" vType="pkw" speedFactor="0.77" vaporized=""/>
    <tripinfo id="161216_421_0" depart="25250.00" departLane="-186623965#18_0" departPos="4.40" departSpeed="0.00" departDelay="2.00" arrival="25363.00" arrivalLane="42925825#0_0" arrivalPos="254.17" arrivalSpeed="12.42" duration="113.00" routeLength="625.62" waitingTime="33.00" waitingCount="3" stopTime="0.00" timeLoss="72.15" rerouteNo="1" devices="vehroute_161216_421_0 tripinfo_161216_421_0 routing_161216_421_0" vType="pkw" speedFactor="1.11" vaporized=""/>
    <tripinfo id="145512_416_0" depart="25308.00" departLane="22917421#3_0" departPos="4.40" departSpeed="0.00" departDelay="0.00" arrival="25363.00" arrivalLane="186623965#17_0" arrivalPos="143.63" arrivalSpeed="14.82" duration="55.00" routeLength="257.42" waitingTime="19.00" waitingCount="2" stopTime="0.00" timeLoss="33.04" rerouteNo="0" devices="vehroute_145512_416_0 tripinfo_145512_416_0 routing_145512_416_0" vType="pkw" speedFactor="1.10" vaporized=""/>
    <tripinfo id="147744_416_0" depart="25272.00" departLane="-186623965#18_0" departPos="4.40" departSpeed="0.00" departDelay="0.00" arrival="25365.00" arrivalLane="42925825#0_0" arrivalPos="254.17" arrivalSpeed="12.91" duration="93.00" routeLength="625.62" waitingTime="21.00" waitingCount="2" stopTime="0.00" timeLoss="46.01" rerouteNo="1" devices="vehroute_147744_416_0 tripinfo_147744_416_0 routing_147744_416_0" vType="pkw" speedFactor="0.97" vaporized=""/>
    <tripinfo id="144017_416_0" depart="25348.00" departLane="-353069169#0_0" departPos="4.40" departSpeed="0.00" departDelay="0.00" arrival="25367.00" arrivalLane="323416262_0" arrivalPos="87.54" arrivalSpeed="11.97" duration="19.00" routeLength="175.35" waitingTime="0.00" waitingCount="0" stopTime="0.00" timeLoss="4.60" rerouteNo="0" devices="vehroute_144017_416_0 tripinfo_144017_416_0 routing_144017_416_0" vType="pkw" speedFactor="0.93" vaporized=""/>
    <tripinfo id="158885_421_0" depart="25220.00" departLane="22917421#3_0" departPos="4.40" departSpeed="0.00" departDelay="0.00" arrival="25375.00" arrivalLane="28675510#7_0" arrivalPos="257.94" arrivalSpeed="11.77" duration="155.00" routeLength="937.03" waitingTime="23.00" waitingCount="2" stopTime="0.00" timeLoss="43.75" rerouteNo="1" devices="vehroute_158885_421_0 tripinfo_158885_421_0 routing_158885_421_0" vType="pkw" speedFactor="0.89" vaporized=""/>
    <tripinfo id="139269_413_0" depart="25307.00" departLane="-23283579#1_0" departPos="4.40" departSpeed="0.00" departDelay="0.00" arrival="25381.00" arrivalLane="-297047308_0" arrivalPos="28.52" arrivalSpeed="12.25" duration="74.00" routeLength="517.28" waitingTime="0.00" waitingCount="0" stopTime="0.00" timeLoss="11.58" rerouteNo="1" devices="vehroute_139269_413_0 tripinfo_139269_413_0 routing_139269_413_0" vType="pkw" speedFactor="0.90" vaporized=""/>
    <tripinfo id="152887_419_0" depart="25229.00" departLane="-28675510#11_0" departPos="4.40" departSpeed="0.00" departDelay="0.00" arrival="25385.00" arrivalLane="8716827#0_0" arrivalPos="109.12" arrivalSpeed="8.08" duration="156.00" routeLength="1154.53" waitingTime="56.00" waitingCount="1" stopTime="0.00" timeLoss="74.67" rerouteNo="1" devices="vehroute_152887_419_0 tripinfo_152887_419_0 routing_152887_419_0" vType="pkw" speedFactor="1.10" vaporized=""/>
    <tripinfo id="108769_400_0" depart="25356.00" departLane="-186623965#18_0" departPos="4.40" departSpeed="0.00" departDelay="0.00" arrival="25385.00" arrivalLane="-22917421#4_0" arrivalPos="96.26" arrivalSpeed="7.75" duration="29.00" routeLength="263.02" waitingTime="0.00" waitingCount="0" stopTime="0.00" timeLoss="6.42" rerouteNo="0" devices="vehroute_108769_400_0 tripinfo_108769_400_0 routing_108769_400_0" vType="pkw" speedFactor="1.08" vaporized=""/>
    <tripinfo id="162890_422_0" depart="25264.00" departLane="8716807#1_0" departPos="4.40" departSpeed="0.00" departDelay="0.00" arrival="25389.00" arrivalLane="28675510#7_0" arrivalPos="257.94" arrivalSpeed="12.04" duration="125.00" routeLength="973.61" waitingTime="18.00" waitingCount="1" stopTime="0.00" timeLoss="30.98" rerouteNo="1" devices="vehroute_162890_422_0 tripinfo_162890_422_0 routing_162890_422_0" vType="pkw" speedFactor="0.93" vaporized=""/>
    <tripinfo id="174787_427_0" depart="25287.00" departLane="22959550#3_0" departPos="4.40" departSpeed="0.00" departDelay="0.00" arrival="25390.00" arrivalLane="28675510#7_0" arrivalPos="257.94" arrivalSpeed="13.12" duration="103.00" routeLength="757.45" waitingTime="16.00" waitingCount="2" stopTime="0.00" timeLoss="34.82" rerouteNo="1" devices="vehroute_174787_427_0 tripinfo_174787_427_0 routing_174787_427_0" vType="pkw" speedFactor="0.98" vaporized=""/>
    <tripinfo id="146391_416_0" depart="25313.00" departLane="-28675510#0_0" departPos="4.40" departSpeed="0.00" departDelay="0.00" arrival="25392.00" arrivalLane="28675510#7_0" arrivalPos="257.94" arrivalSpeed="13.34" duration="79.00" routeLength="752.27" waitingTime="8.00" waitingCount="2" stopTime="0.00" timeLoss="24.14" rerouteNo="1" devices="vehroute_146391_416_0 tripinfo_146391_416_0 routing_146391_416_0" vType="pkw" speedFactor="1.00" vaporized=""/>
    <tripinfo id="148207_417_0" depart="25320.00" departLane="-186623965#18_0" departPos="4.40" departSpeed="0.00" departDelay="0.00" arrival="25398.00" arrivalLane="42925825#0_0" arrivalPos="254.17" arrivalSpeed="11.95" duration="78.00" routeLength="625.62" waitingTime="19.00" waitingCount="1" stopTime="0.00" timeLoss="29.30" rerouteNo="1" devices="vehroute_148207_417_0 tripinfo_148207_417_0 routing_148207_417_0" vType="pkw" speedFactor="0.94" vaporized=""/>
    <tripinfo id="120970_405_0" depart="25343.00" departLane="-23283579#1_0" departPos="4.40" departSpeed="0.00" departDelay="0.00" arrival="25398.00" arrivalLane="23283470#5_0" arrivalPos="89.27" arrivalSpeed="6.99" duration="55.00" routeLength="393.04" waitingTime="0.00" waitingCount="0" stopTime="0.00" timeLoss="9.57" rerouteNo="1" devices="vehroute_120970_405_0 tripinfo_120970_405_0 routing_120970_405_0" vType="pkw" speedFactor="0.95" vaporized=""/>
    <tripinfo id="164277_422_0" depart="25343.00" departLane="23285888#0_0" departPos="4.40" departSpeed="0.00" departDelay="0.00" arrival="25398.00" arrivalLane="297047309#0_0" arrivalPos="91.17" arrivalSpeed="15.16" duration="55.00" routeLength="518.80" waitingTime="0.00" waitingCount="0" stopTime="0.00" timeLoss="7.02" rerouteNo="1" devices="vehroute_164277_422_0 tripinfo_164277_422_0 routing_164277_422_0" vType="pkw" speedFactor="1.13" vaporized=""/>
    <tripinfo id="137686_412_0" depart="25330.00" departLane="-186623965#18_0" departPos="4.40" departSpeed="0.00" departDelay="0.00" arrival="25399.00" arrivalLane="42925825#0_0" arrivalPos="254.17" arrivalSpeed="14.06" duration="69.00" routeLength="625.62" waitingTime="7.00" waitingCount="1" stopTime="0.00" timeLoss="24.41" rerouteNo="1" devices="vehroute_137686_412_0 tripinfo_137686_412_0 routing_137686_412_0" vType="pkw" speedFactor="1.02" vaporized=""/>
    <tripinfo id="166783_424_0" depart="25349.00" departLane="22917421#3_0" departPos="4.40" departSpeed="0.00" departDelay="0.00" arrival="25400.00" arrivalLane="186623965#17_0" arrivalPos="143.63" arrivalSpeed="12.54" duration="51.00" routeLength="257.42" waitingTime="19.00" waitingCount="1" stopTime="0.00" timeLoss="25.70" rerouteNo="0" devices="vehroute_166783_424_0 tripinfo_166783_424_0 routing_166783_424_0" vType="pkw" speedFactor="0.92" vaporized=""/>