<?xml version="1.0" encoding="UTF-8"?>

<!-- generated on 2025-05-20 17:38:44 by Eclipse SUMO sumo Version 1.20.0
<configuration xmlns:xsi="http://www.w3.org/2001/XMLSchema-instance" xsi:noNamespaceSchemaLocation="http://sumo.dlr.de/xsd/sumoConfiguration.xsd">

    <input>
        <net-file value="C:\Users\skang\Desktop\최석환\강의\무인항공딥러닝개론\RESCO-main\resco_benchmark\environments/cologne8/cologne8.net.xml"/>
        <route-files value="C:\Users\skang\Desktop\최석환\강의\무인항공딥러닝개론\RESCO-main\resco_benchmark\environments/cologne8/cologne8.rou.xml"/>
    </input>

    <output>
        <tripinfo-output value="C:\Users\skang\Desktop\최석환\강의\무인항공딥러닝개론\results\MPLight-tr0-cologne8-0-mplight-pressure\tripinfo_78.xml"/>
        <tripinfo-output.write-unfinished value="true"/>
        <vehroute-output value="C:\Users\skang\Desktop\최석환\강의\무인항공딥러닝개론\results\MPLight-tr0-cologne8-0-mplight-pressure\route_78.xml"/>
        <vehroute-output.sorted value="True"/>
        <vehroute-output.write-unfinished value="True"/>
        <collision-output value="C:\Users\skang\Desktop\최석환\강의\무인항공딥러닝개론\results\MPLight-tr0-cologne8-0-mplight-pressure\coll_78.xml"/>
        <statistic-output value="C:\Users\skang\Desktop\최석환\강의\무인항공딥러닝개론\results\MPLight-tr0-cologne8-0-mplight-pressure\stats_78.xml"/>
    </output>

    <time>
        <begin value="25200"/>
        <end value="28800"/>
    </time>

    <processing>
        <time-to-teleport value="-1"/>
    </processing>

    <report>
        <no-warnings value="True"/>
        <no-step-log value="True"/>
    </report>

    <traci_server>
        <remote-port value="57543"/>
    </traci_server>

    <random_number>
        <random value="true"/>
    </random_number>

</configuration>
-->

<tripinfos xmlns:xsi="http://www.w3.org/2001/XMLSchema-instance" xsi:noNamespaceSchemaLocation="http://sumo.dlr.de/xsd/tripinfo_file.xsd">
    <tripinfo id="142890_415_0" depart="25218.00" departLane="-23283579#1_0" departPos="4.40" departSpeed="0.00" departDelay="0.00" arrival="25226.00" arrivalLane="23283579#1_0" arrivalPos="22.22" arrivalSpeed="10.46" duration="8.00" routeLength="44.72" waitingTime="0.00" waitingCount="0" stopTime="0.00" timeLoss="2.97" rerouteNo="0" devices="vehroute_142890_415_0 tripinfo_142890_415_0 routing_142890_415_0" vType="pkw" speedFactor="0.78" vaporized=""/>
    <tripinfo id="137959_412_0" depart="25209.00" departLane="-186623965#18_0" departPos="4.40" departSpeed="0.00" departDelay="0.00" arrival="25239.00" arrivalLane="-22917421#4_0" arrivalPos="96.26" arrivalSpeed="7.43" duration="30.00" routeLength="263.02" waitingTime="0.00" waitingCount="0" stopTime="0.00" timeLoss="6.51" rerouteNo="0" devices="vehroute_137959_412_0 tripinfo_137959_412_0 routing_137959_412_0" vType="pkw" speedFactor="1.03" vaporized=""/>
    <tripinfo id="155570_420_0" depart="25200.00" departLane="-28675510#11_0" departPos="4.40" departSpeed="0.00" departDelay="0.00" arrival="25249.00" arrivalLane="28675510#7_0" arrivalPos="257.94" arrivalSpeed="11.79" duration="49.00" routeLength="516.12" waitingTime="0.00" waitingCount="0" stopTime="0.00" timeLoss="6.55" rerouteNo="0" devices="vehroute_155570_420_0 tripinfo_155570_420_0 routing_155570_420_0" vType="pkw" speedFactor="0.89" vaporized=""/>
    <tripinfo id="134603_411_0" depart="25206.00" departLane="-28675510#11_0" departPos="4.40" departSpeed="0.00" departDelay="0.00" arrival="25250.00" arrivalLane="28675510#7_0" arrivalPos="257.94" arrivalSpeed="13.00" duration="44.00" routeLength="516.12" waitingTime="0.00" waitingCount="0" stopTime="0.00" timeLoss="11.00" rerouteNo="0" devices="vehroute_134603_411_0 tripinfo_134603_411_0 routing_134603_411_0" vType="pkw" speedFactor="1.13" vaporized=""/>
    <tripinfo id="140143_414_0" depart="25211.00" departLane="-28675510#11_0" departPos="4.40" departSpeed="0.00" departDelay="1.00" arrival="25259.00" arrivalLane="28675510#7_0" arrivalPos="257.94" arrivalSpeed="12.35" duration="48.00" routeLength="516.12" waitingTime="0.00" waitingCount="0" stopTime="0.00" timeLoss="9.58" rerouteNo="0" devices="vehroute_140143_414_0 tripinfo_140143_414_0 routing_140143_414_0" vType="pkw" speedFactor="0.98" vaporized=""/>
    <tripinfo id="135663_411_0" depart="25218.00" departLane="-28675510#11_0" departPos="4.40" departSpeed="0.00" departDelay="4.00" arrival="25263.00" arrivalLane="28675510#7_0" arrivalPos="257.94" arrivalSpeed="13.01" duration="45.00" routeLength="516.12" waitingTime="0.00" waitingCount="0" stopTime="0.00" timeLoss="8.34" rerouteNo="0" devices="vehroute_135663_411_0 tripinfo_135663_411_0 routing_135663_411_0" vType="pkw" speedFactor="1.01" vaporized=""/>
    <tripinfo id="149045_417_0" depart="25221.00" departLane="-28675510#11_0" departPos="4.40" departSpeed="0.00" departDelay="4.00" arrival="25268.00" arrivalLane="28675510#7_0" arrivalPos="257.94" arrivalSpeed="11.76" duration="47.00" routeLength="516.12" waitingTime="0.00" waitingCount="0" stopTime="0.00" timeLoss="5.17" rerouteNo="0" devices="vehroute_149045_417_0 tripinfo_149045_417_0 routing_149045_417_0" vType="pkw" speedFactor="0.90" vaporized=""/>
    <tripinfo id="138070_412_0" depart="25229.00" departLane="22917421#3_0" departPos="4.40" departSpeed="0.00" departDelay="0.00" arrival="25269.00" arrivalLane="186623965#17_0" arrivalPos="143.63" arrivalSpeed="12.23" duration="40.00" routeLength="257.42" waitingTime="7.00" waitingCount="1" stopTime="0.00" timeLoss="14.38" rerouteNo="0" devices="vehroute_138070_412_0 tripinfo_138070_412_0 routing_138070_412_0" vType="pkw" speedFactor="0.93" vaporized=""/>
    <tripinfo id="153496_420_0" depart="25232.00" departLane="22917421#3_0" departPos="4.40" departSpeed="0.00" departDelay="0.00" arrival="25272.00" arrivalLane="186623965#17_0" arrivalPos="143.63" arrivalSpeed="10.84" duration="40.00" routeLength="257.42" waitingTime="4.00" waitingCount="1" stopTime="0.00" timeLoss="11.69" rerouteNo="0" devices="vehroute_153496_420_0 tripinfo_153496_420_0 routing_153496_420_0" vType="pkw" speedFactor="0.83" vaporized=""/>
    <tripinfo id="155353_420_0" depart="25234.00" departLane="22917421#3_0" departPos="4.40" departSpeed="0.00" departDelay="0.00" arrival="25274.00" arrivalLane="186623965#17_0" arrivalPos="143.63" arrivalSpeed="14.19" duration="40.00" routeLength="257.42" waitingTime="2.00" waitingCount="1" stopTime="0.00" timeLoss="17.47" rerouteNo="0" devices="vehroute_155353_420_0 tripinfo_155353_420_0 routing_155353_420_0" vType="pkw" speedFactor="1.05" vaporized=""/>
    <tripinfo id="161942_421_0" depart="25233.00" departLane="-42925825#2_0" departPos="4.40" departSpeed="0.00" departDelay="0.00" arrival="25277.00" arrivalLane="42925825#0_0" arrivalPos="254.17" arrivalSpeed="13.59" duration="44.00" routeLength="508.64" waitingTime="0.00" waitingCount="0" stopTime="0.00" timeLoss="7.27" rerouteNo="0" devices="vehroute_161942_421_0 tripinfo_161942_421_0 routing_161942_421_0" vType="pkw" speedFactor="1.01" vaporized=""/>
    <tripinfo id="118788_405_0" depart="25247.00" departLane="22917421#3_0" departPos="4.40" departSpeed="0.00" departDelay="0.00" arrival="25280.00" arrivalLane="186623965#17_0" arrivalPos="143.63" arrivalSpeed="11.93" duration="33.00" routeLength="257.42" waitingTime="0.00" waitingCount="0" stopTime="0.00" timeLoss="6.82" rerouteNo="0" devices="vehroute_118788_405_0 tripinfo_118788_405_0 routing_118788_405_0" vType="pkw" speedFactor="0.90" vaporized=""/>
    <tripinfo id="144617_416_0" depart="25256.00" departLane="22917421#3_0" departPos="4.40" departSpeed="0.00" departDelay="0.00" arrival="25281.00" arrivalLane="186623965#17_0" arrivalPos="143.63" arrivalSpeed="15.06" duration="25.00" routeLength="257.42" waitingTime="0.00" waitingCount="0" stopTime="0.00" timeLoss="4.17" rerouteNo="0" devices="vehroute_144617_416_0 tripinfo_144617_416_0 routing_144617_416_0" vType="pkw" speedFactor="1.12" vaporized=""/>
    <tripinfo id="134428_411_0" depart="25237.00" departLane="-28675510#11_0" departPos="4.40" departSpeed="0.00" departDelay="0.00" arrival="25282.00" arrivalLane="28675510#7_0" arrivalPos="257.94" arrivalSpeed="12.45" duration="45.00" routeLength="516.12" waitingTime="0.00" waitingCount="0" stopTime="0.00" timeLoss="4.97" rerouteNo="0" devices="vehroute_134428_411_0 tripinfo_134428_411_0 routing_134428_411_0" vType="pkw" speedFactor="0.94" vaporized=""/>
    <tripinfo id="141355_415_0" depart="25232.00" departLane="-186623965#18_0" departPos="4.40" departSpeed="0.00" departDelay="0.00" arrival="25283.00" arrivalLane="42925825#0_0" arrivalPos="254.17" arrivalSpeed="13.32" duration="51.00" routeLength="625.62" waitingTime="0.00" waitingCount="0" stopTime="0.00" timeLoss="6.94" rerouteNo="1" devices="vehroute_141355_415_0 tripinfo_141355_415_0 routing_141355_415_0" vType="pkw" speedFactor="1.02" vaporized=""/>
    <tripinfo id="111571_401_0" depart="25267.00" departLane="-353069169#0_0" departPos="4.40" departSpeed="0.00" departDelay="0.00" arrival="25292.00" arrivalLane="24487264_0" arrivalPos="166.35" arrivalSpeed="16.48" duration="25.00" routeLength="286.19" waitingTime="0.00" waitingCount="0" stopTime="0.00" timeLoss="7.42" rerouteNo="1" devices="vehroute_111571_401_0 tripinfo_111571_401_0 routing_111571_401_0" vType="pkw" speedFactor="1.26" vaporized=""/>
    <tripinfo id="162497_421_0" depart="25273.00" departLane="22917421#3_0" departPos="4.40" departSpeed="0.00" departDelay="0.00" arrival="25298.00" arrivalLane="186623965#17_0" arrivalPos="143.63" arrivalSpeed="14.50" duration="25.00" routeLength="257.42" waitingTime="0.00" waitingCount="0" stopTime="0.00" timeLoss="3.44" rerouteNo="0" devices="vehroute_162497_421_0 tripinfo_162497_421_0 routing_162497_421_0" vType="pkw" speedFactor="1.08" vaporized=""/>
    <tripinfo id="150593_418_0" depart="25297.00" departLane="22959552#0_0" departPos="4.40" departSpeed="0.00" departDelay="0.00" arrival="25311.00" arrivalLane="22959552#0_0" arrivalPos="91.39" arrivalSpeed="7.13" duration="14.00" routeLength="86.99" waitingTime="0.00" waitingCount="0" stopTime="0.00" timeLoss="2.86" rerouteNo="1" devices="vehroute_150593_418_0 tripinfo_150593_418_0 routing_150593_418_0" vType="pkw" speedFactor="0.99" vaporized=""/>
    <tripinfo id="166162_424_0" depart="25233.00" departLane="22959550#0_0" departPos="4.40" departSpeed="0.00" departDelay="0.00" arrival="25315.00" arrivalLane="28675510#7_0" arrivalPos="257.94" arrivalSpeed="15.12" duration="82.00" routeLength="903.30" waitingTime="0.00" waitingCount="0" stopTime="0.00" timeLoss="9.49" rerouteNo="1" devices="vehroute_166162_424_0 tripinfo_166162_424_0 routing_166162_424_0" vType="pkw" speedFactor="1.17" vaporized=""/>
    <tripinfo id="163043_422_0" depart="25214.00" departLane="-28675510#11_0" departPos="4.40" departSpeed="0.00" departDelay="2.00" arrival="25316.00" arrivalLane="8716827#0_0" arrivalPos="109.12" arrivalSpeed="7.43" duration="102.00" routeLength="1154.53" waitingTime="1.00" waitingCount="1" stopTime="0.00" timeLoss="13.63" rerouteNo="1" devices="vehroute_163043_422_0 tripinfo_163043_422_0 routing_163043_422_0" vType="pkw" speedFactor="1.01" vaporized=""/>
    <tripinfo id="163799_422_0" depart="25257.00" departLane="-186623965#18_0" departPos="4.40" departSpeed="0.00" departDelay="2.00" arrival="25316.00" arrivalLane="-22917421#4_0" arrivalPos="96.26" arrivalSpeed="8.17" duration="59.00" routeLength="263.02" waitingTime="21.00" waitingCount="2" stopTime="0.00" timeLoss="35.10" rerouteNo="0" devices="vehroute_163799_422_0 tripinfo_163799_422_0 routing_163799_422_0" vType="pkw" speedFactor="1.02" vaporized=""/>
    <tripinfo id="163025_422_0" depart="25246.00" departLane="-28675510#11_0" departPos="4.40" departSpeed="0.00" departDelay="0.00" arrival="25321.00" arrivalLane="8716807#1_0" arrivalPos="110.75" arrivalSpeed="9.25" duration="75.00" routeLength="862.02" waitingTime="0.00" waitingCount="0" stopTime="0.00" timeLoss="8.75" rerouteNo="1" devices="vehroute_163025_422_0 tripinfo_163025_422_0 routing_163025_422_0" vType="pkw" speedFactor="1.12" vaporized=""/>
    <tripinfo id="152887_419_0" depart="25229.00" departLane="-28675510#11_0" departPos="4.40" departSpeed="0.00" departDelay="0.00" arrival="25340.00" arrivalLane="8716827#0_0" arrivalPos="109.12" arrivalSpeed="6.24" duration="111.00" routeLength="1154.53" waitingTime="0.00" waitingCount="0" stopTime="0.00" timeLoss="10.06" rerouteNo="1" devices="vehroute_152887_419_0 tripinfo_152887_419_0 routing_152887_419_0" vType="pkw" speedFactor="0.88" vaporized=""/>
    <tripinfo id="171184_426_0" depart="25326.00" departLane="133081987#0_0" departPos="4.40" departSpeed="0.00" departDelay="0.00" arrival="25343.00" arrivalLane="23283436_0" arrivalPos="65.76" arrivalSpeed="13.61" duration="17.00" routeLength="154.99" waitingTime="0.00" waitingCount="0" stopTime="0.00" timeLoss="6.19" rerouteNo="0" devices="vehroute_171184_426_0 tripinfo_171184_426_0 routing_171184_426_0" vType="pkw" speedFactor="1.05" vaporized=""/>
    <tripinfo id="174787_427_0" depart="25287.00" departLane="22959550#3_0" departPos="4.40" departSpeed="0.00" departDelay="0.00" arrival="25352.00" arrivalLane="28675510#7_0" arrivalPos="257.94" arrivalSpeed="15.55" duration="65.00" routeLength="757.45" waitingTime="0.00" waitingCount="0" stopTime="0.00" timeLoss="7.69" rerouteNo="1" devices="vehroute_174787_427_0 tripinfo_174787_427_0 routing_174787_427_0" vType="pkw" speedFactor="1.17" vaporized=""/>
    <tripinfo id="142950_415_0" depart="25274.00" departLane="-28675510#11_0" departPos="4.40" departSpeed="0.00" departDelay="0.00" arrival="25359.00" arrivalLane="155723703#0_0" arrivalPos="92.60" arrivalSpeed="13.99" duration="85.00" routeLength="1137.50" waitingTime="0.00" waitingCount="0" stopTime="0.00" timeLoss="7.89" rerouteNo="1" devices="vehroute_142950_415_0 tripinfo_142950_415_0 routing_142950_415_0" vType="pkw" speedFactor="1.07" vaporized=""/>
    <tripinfo id="158136_421_0" depart="25240.00" departLane="28675510#1_0" departPos="4.40" departSpeed="0.00" departDelay="0.00" arrival="25363.00" arrivalLane="323416262_0" arrivalPos="87.54" arrivalSpeed="12.69" duration="123.00" routeLength="1126.93" waitingTime="0.00" waitingCount="0" stopTime="0.00" timeLoss="16.69" rerouteNo="1" devices="vehroute_158136_421_0 tripinfo_158136_421_0 routing_158136_421_0" vType="pkw" speedFactor="0.98" vaporized=""/>
    <tripinfo id="144017_416_0" depart="25348.00" departLane="-353069169#0_0" departPos="4.40" departSpeed="0.00" departDelay="0.00" arrival="25367.00" arrivalLane="323416262_0" arrivalPos="87.54" arrivalSpeed="11.74" duration="19.00" routeLength="175.35" waitingTime="0.00" waitingCount="0" stopTime="0.00" timeLoss="4.69" rerouteNo="0" devices="vehroute_144017_416_0 tripinfo_144017_416_0 routing_144017_416_0" vType="pkw" speedFactor="0.90" vaporized=""/>
    <tripinfo id="146391_416_0" depart="25315.00" departLane="-28675510#0_0" departPos="4.40" departSpeed="0.00" departDelay="2.00" arrival="25379.00" arrivalLane="28675510#7_0" arrivalPos="257.94" arrivalSpeed="12.53" duration="64.00" routeLength="752.27" waitingTime="0.00" waitingCount="0" stopTime="0.00" timeLoss="7.71" rerouteNo="1" devices="vehroute_146391_416_0 tripinfo_146391_416_0 routing_146391_416_0" vType="pkw" speedFactor="0.97" vaporized=""/>
    <tripinfo id="108769_400_0" depart="25356.00" departLane="-186623965#18_0" departPos="4.40" departSpeed="0.00" departDelay="0.00" arrival="25385.00" arrivalLane="-22917421#4_0" arrivalPos="96.26" arrivalSpeed="8.13" duration="29.00" routeLength="263.02" waitingTime="0.00" waitingCount="0" stopTime="0.00" timeLoss="5.30" rerouteNo="0" devices="vehroute_108769_400_0 tripinfo_108769_400_0 routing_108769_400_0" vType="pkw" speedFactor="1.06" vaporized=""/>
    <tripinfo id="96268_394_0" depart="25369.00" departLane="-186623965#18_0" departPos="4.40" departSpeed="0.00" departDelay="0.00" arrival="25400.00" arrivalLane="-22917421#4_0" arrivalPos="96.26" arrivalSpeed="7.15" duration="31.00" routeLength="263.02" waitingTime="0.00" waitingCount="0" stopTime="0.00" timeLoss="4.95" rerouteNo="0" devices="vehroute_96268_394_0 tripinfo_96268_394_0 routing_96268_394_0" vType="pkw" speedFactor="0.94" vaporized=""/>
    <tripinfo id="164277_422_0" depart="25343.00" departLane="23285888#0_0" departPos="4.40" departSpeed="0.00" departDelay="0.00" arrival="25411.00" arrivalLane="297047309#0_0" arrivalPos="91.17" arrivalSpeed="12.30" duration="68.00" routeLength="518.80" waitingTime="0.00" waitingCount="0" stopTime="0.00" timeLoss="7.75" rerouteNo="1" devices="vehroute_164277_422_0 tripinfo_164277_422_0 routing_164277_422_0" vType="pkw" speedFactor="0.90" vaporized=""/>
    <tripinfo id="157572_421_0" depart="25303.00" departLane="23283470#0_0" departPos="4.40" departSpeed="0.00" departDelay="0.00" arrival="25419.00" arrivalLane="323416262_0" arrivalPos="87.54" arrivalSpeed="11.70" duration="116.00" routeLength="994.79" waitingTime="0.00" waitingCount="0" stopTime="0.00" timeLoss="11.39" rerouteNo="1" devices="vehroute_157572_421_0 tripinfo_157572_421_0 routing_157572_421_0" vType="pkw" speedFactor="0.89" vaporized=""/>
    <tripinfo id="149205_417_0" depart="25338.00" departLane="8716807#1_0" departPos="4.40" departSpeed="0.00" departDelay="0.00" arrival="25427.00" arrivalLane="323416262_0" arrivalPos="87.54" arrivalSpeed="12.95" duration="89.00" routeLength="830.79" waitingTime="1.00" waitingCount="1" stopTime="0.00" timeLoss="14.73" rerouteNo="1" devices="vehroute_149205_417_0 tripinfo_149205_417_0 routing_149205_417_0" vType="pkw" speedFactor="1.00" vaporized=""/>
    <tripinfo id="83049_390_0" depart="25408.00" departLane="-4936412_0" departPos="4.40" departSpeed="0.00" departDelay="0.00" arrival="25429.00" arrivalLane="8716827#0_0" arrivalPos="109.12" arrivalSpeed="8.29" duration="21.00" routeLength="148.59" waitingTime="0.00" waitingCount="0" stopTime="0.00" timeLoss="3.83" rerouteNo="0" devices="vehroute_83049_390_0 tripinfo_83049_390_0 routing_83049_390_0" vType="pkw" speedFactor="1.00" vaporized=""/>
    <tripinfo id="67978_381_0" depart="25412.00" departLane="-4936412_0" departPos="4.40" departSpeed="0.00" departDelay="0.00" arrival="25431.00" arrivalLane="8716827#0_0" arrivalPos="109.12" arrivalSpeed="8.20" duration="19.00" routeLength="148.59" waitingTime="0.00" waitingCount="0" stopTime="0.00" timeLoss="4.39" rerouteNo="0" devices="vehroute_67978_381_0 tripinfo_67978_381_0 routing_67978_381_0" vType="pkw" speedFactor="1.12" vaporized=""/>
    <tripinfo id="164388_422_0" depart="25405.00" departLane="-186623965#18_0" departPos="4.40" departSpeed="0.00" departDelay="0.00" arrival="25433.00" arrivalLane="-22917421#4_0" arrivalPos="96.26" arrivalSpeed="7.83" duration="28.00" routeLength="263.02" waitingTime="0.00" waitingCount="0" stopTime="0.00" timeLoss="5.16" rerouteNo="0" devices="vehroute_164388_422_0 tripinfo_164388_422_0 routing_164388_422_0" vType="pkw" speedFactor="1.06" vaporized=""/>
    <tripinfo id="146152_416_0" depart="25210.00" departLane="25166682#0_0" departPos="4.40" departSpeed="0.00" departDelay="0.00" arrival="25436.00" arrivalLane="28675510#7_0" arrivalPos="257.94" arrivalSpeed="13.40" duration="226.00" routeLength="1219.50" waitingTime="97.00" waitingCount="1" stopTime="0.00" timeLoss="116.25" rerouteNo="1" devices="vehroute_146152_416_0 tripinfo_146152_416_0 routing_146152_416_0" vType="pkw" speedFactor="0.98" vaporized=""/>
    <tripinfo id="175131_428_0" depart="25328.00" departLane="23840713#2_0" departPos="4.40" departSpeed="0.00" departDelay="0.00" arrival="25439.00" arrivalLane="42925825#0_0" arrivalPos="254.17" arrivalSpeed="13.86" duration="111.00" routeLength="1254.72" waitingTime="0.00" waitingCount="0" stopTime="0.00" timeLoss="11.32" rerouteNo="1" devices="vehroute_175131_428_0 tripinfo_175131_428_0 routing_175131_428_0" vType="pkw" speedFactor="1.08" vaporized=""/>
    <tripinfo id="118988_405_0" depart="25416.00" departLane="-186623965#18_0" departPos="4.40" departSpeed="0.00" departDelay="1.00" arrival="25445.00" arrivalLane="-22917421#4_0" arrivalPos="96.26" arrivalSpeed="8.48" duration="29.00" routeLength="263.02" waitingTime="0.00" waitingCount="0" stopTime="0.00" timeLoss="6.34" rerouteNo="0" devices="vehroute_118988_405_0 tripinfo_118988_405_0 routing_118988_405_0" vType="pkw" speedFactor="1.09" vaporized=""/>
    <tripinfo id="154646_420_0" depart="25419.00" departLane="25166682#0_0" departPos="4.40" departSpeed="0.00" departDelay="0.00" arrival="25449.00" arrivalLane="323450710#0_0" arrivalPos="95.59" arrivalSpeed="10.51" duration="30.00" routeLength="289.69" waitingTime="0.00" waitingCount="0" stopTime="0.00" timeLoss="4.61" rerouteNo="1" devices="vehroute_154646_420_0 tripinfo_154646_420_0 routing_154646_420_0" vType="pkw" speedFactor="0.84" vaporized=""/>
    <tripinfo id="148419_417_0" depart="25363.00" departLane="133081987#3_0" departPos="4.40" departSpeed="0.00" departDelay="0.00" arrival="25451.00" arrivalLane="297047309#0_0" arrivalPos="91.17" arrivalSpeed="12.38" duration="88.00" routeLength="785.73" waitingTime="0.00" waitingCount="0" stopTime="0.00" timeLoss="9.95" rerouteNo="1" devices="vehroute_148419_417_0 tripinfo_148419_417_0 routing_148419_417_0" vType="pkw" speedFactor="0.96" vaporized=""/>
    <tripinfo id="122677_406_0" depart="25441.00" departLane="-4936412_0" departPos="4.40" departSpeed="0.00" departDelay="0.00" arrival="25463.00" arrivalLane="8716827#0_0" arrivalPos="109.12" arrivalSpeed="6.76" duration="22.00" routeLength="148.59" waitingTime="0.00" waitingCount="0" stopTime="0.00" timeLoss="4.32" rerouteNo="0" devices="vehroute_122677_406_0 tripinfo_122677_406_0 routing_122677_406_0" vType="pkw" speedFactor="0.97" vaporized=""/>
    <tripinfo id="166238_424_0" depart="25449.00" departLane="42925825#0_0" departPos="4.40" departSpeed="0.00" departDelay="0.00" arrival="25473.00" arrivalLane="42925825#0_0" arrivalPos="254.17" arrivalSpeed="12.55" duration="24.00" routeLength="249.77" waitingTime="0.00" waitingCount="0" stopTime="0.00" timeLoss="4.16" rerouteNo="1" devices="vehroute_166238_424_0 tripinfo_166238_424_0 routing_166238_424_0" vType="pkw" speedFactor="0.92" vaporized=""/>
    <tripinfo id="139487_413_0" depart="25456.00" departLane="-4936412_0" departPos="4.40" departSpeed="0.00" departDelay="0.00" arrival="25476.00" arrivalLane="8716827#0_0" arrivalPos="109.12" arrivalSpeed="8.62" duration="20.00" routeLength="148.59" waitingTime="0.00" waitingCount="0" stopTime="0.00" timeLoss="4.09" rerouteNo="0" devices="vehroute_139487_413_0 tripinfo_139487_413_0 routing_139487_413_0" vType="pkw" speedFactor="1.04" vaporized=""/>
    <tripinfo id="145712_416_0" depart="25405.00" departLane="-28675510#0_0" departPos="4.40" departSpeed="0.00" departDelay="0.00" arrival="25477.00" arrivalLane="28675510#7_0" arrivalPos="257.94" arrivalSpeed="10.49" duration="72.00" routeLength="752.27" waitingTime="0.00" waitingCount="0" stopTime="0.00" timeLoss="7.18" rerouteNo="1" devices="vehroute_145712_416_0 tripinfo_145712_416_0 routing_145712_416_0" vType="pkw" speedFactor="0.84" vaporized=""/>
    <tripinfo id="114597_403_0" depart="25201.00" departLane="22917421#3_0" departPos="4.40" departSpeed="0.00" departDelay="0.00" arrival="25478.00" arrivalLane="-186623965#14_0" arrivalPos="159.69" arrivalSpeed="13.51" duration="277.00" routeLength="476.78" waitingTime="230.00" waitingCount="1" stopTime="0.00" timeLoss="239.24" rerouteNo="1" devices="vehroute_114597_403_0 tripinfo_114597_403_0 routing_114597_403_0" vType="pkw" speedFactor="1.05" vaporized=""/>
    <tripinfo id="131243_409_0" depart="25248.00" departLane="-186623965#18_0" departPos="4.40" departSpeed="0.00" departDelay="0.00" arrival="25478.00" arrivalLane="-186623965#14_1" arrivalPos="159.69" arrivalSpeed="15.68" duration="230.00" routeLength="528.65" waitingTime="177.00" waitingCount="2" stopTime="0.00" timeLoss="196.15" rerouteNo="1" devices="vehroute_131243_409_0 tripinfo_131243_409_0 routing_131243_409_0" vType="pkw" speedFactor="1.15" vaporized=""/>
    <tripinfo id="148727_417_0" depart="25479.00" departLane="23283579#1_0" departPos="4.40" departSpeed="0.00" departDelay="0.00" arrival="25483.00" arrivalLane="23283579#1_0" arrivalPos="22.22" arrivalSpeed="9.24" duration="4.00" routeLength="17.82" waitingTime="0.00" waitingCount="0" stopTime="0.00" timeLoss="2.25" rerouteNo="1" devices="vehroute_148727_417_0 tripinfo_148727_417_0 routing_148727_417_0" vType="pkw" speedFactor="0.96" vaporized=""/>
    <tripinfo id="119181_405_0" depart="25226.00" departLane="186623965#9_0" departPos="4.40" departSpeed="0.00" departDelay="0.00" arrival="25485.00" arrivalLane="42925825#0_0" arrivalPos="254.17" arrivalSpeed="13.99" duration="259.00" routeLength="418.48" waitingTime="219.00" waitingCount="1" stopTime="0.00" timeLoss="231.12" rerouteNo="0" devices="vehroute_119181_405_0 tripinfo_119181_405_0 routing_119181_405_0" vType="pkw" speedFactor="1.09" vaporized=""/>
    <tripinfo id="146495_416_0" depart="25369.00" departLane="23840712#0_0" departPos="4.40" departSpeed="0.00" departDelay="0.00" arrival="25487.00" arrivalLane="-186623965#14_0" arrivalPos="159.69" arrivalSpeed="14.59" duration="118.00" routeLength="1176.49" waitingTime="4.00" waitingCount="1" stopTime="0.00" timeLoss="24.59" rerouteNo="1" devices="vehroute_146495_416_0 tripinfo_146495_416_0 routing_146495_416_0" vType="pkw" speedFactor="1.11" vaporized=""/>
    <tripinfo id="171631_426_0" depart="25415.00" departLane="23283470#0_0" departPos="4.40" departSpeed="0.00" departDelay="0.00" arrival="25487.00" arrivalLane="23283579#1_0" arrivalPos="22.22" arrivalSpeed="11.31" duration="72.00" routeLength="531.05" waitingTime="0.00" waitingCount="0" stopTime="0.00" timeLoss="9.32" rerouteNo="1" devices="vehroute_171631_426_0 tripinfo_171631_426_0 routing_171631_426_0" vType="pkw" speedFactor="0.87" vaporized=""/>
    <tripinfo id="133416_410_0" depart="25229.00" departLane="186623965#9_0" departPos="4.40" departSpeed="0.00" departDelay="1.00" arrival="25489.00" arrivalLane="42925825#0_0" arrivalPos="254.17" arrivalSpeed="13.32" duration="260.00" routeLength="418.48" waitingTime="217.00" waitingCount="1" stopTime="0.00" timeLoss="228.42" rerouteNo="0" devices="vehroute_133416_410_0 tripinfo_133416_410_0 routing_133416_410_0" vType="pkw" speedFactor="0.96" vaporized=""/>
    <tripinfo id="138639_413_0" depart="25314.00" departLane="186623965#9_0" departPos="4.40" departSpeed="0.00" departDelay="0.00" arrival="25490.00" arrivalLane="186623965#17_1" arrivalPos="143.63" arrivalSpeed="16.04" duration="176.00" routeLength="527.61" waitingTime="131.00" waitingCount="1" stopTime="0.00" timeLoss="143.39" rerouteNo="1" devices="vehroute_138639_413_0 tripinfo_138639_413_0 routing_138639_413_0" vType="pkw" speedFactor="1.17" vaporized=""/>
    <tripinfo id="131071_409_0" depart="25236.00" departLane="-186623965#18_0" departPos="4.40" departSpeed="0.00" departDelay="0.00" arrival="25494.00" arrivalLane="42925825#0_0" arrivalPos="254.17" arrivalSpeed="11.72" duration="258.00" routeLength="625.62" waitingTime="187.00" waitingCount="2" stopTime="0.00" timeLoss="208.66" rerouteNo="1" devices="vehroute_131071_409_0 tripinfo_131071_409_0 routing_131071_409_0" vType="pkw" speedFactor="0.92" vaporized=""/>
    <tripinfo id="136088_411_0" depart="25475.00" departLane="-4936412_0" departPos="4.40" departSpeed="0.00" departDelay="0.00" arrival="25494.00" arrivalLane="8716827#0_0" arrivalPos="109.12" arrivalSpeed="8.78" duration="19.00" routeLength="148.59" waitingTime="0.00" waitingCount="0" stopTime="0.00" timeLoss="3.92" rerouteNo="0" devices="vehroute_136088_411_0 tripinfo_136088_411_0 routing_136088_411_0" vType="pkw" speedFactor="1.12" vaporized=""/>
    <tripinfo id="169793_426_0" depart="25405.00" departLane="290365598#0_0" departPos="4.40" departSpeed="0.00" departDelay="0.00" arrival="25496.00" arrivalLane="-186623965#14_0" arrivalPos="159.69" arrivalSpeed="15.75" duration="91.00" routeLength="1074.79" waitingTime="0.00" waitingCount="0" stopTime="0.00" timeLoss="10.02" rerouteNo="1" devices="vehroute_169793_426_0 tripinfo_169793_426_0 routing_169793_426_0" vType="pkw" speedFactor="1.14" vaporized=""/>
    <tripinfo id="140525_414_0" depart="25221.00" departLane="186623965#9_0" departPos="4.40" departSpeed="0.00" departDelay="0.00" arrival="25499.00" arrivalLane="186623965#17_0" arrivalPos="143.63" arrivalSpeed="10.20" duration="278.00" routeLength="527.61" waitingTime="222.00" waitingCount="1" stopTime="0.00" timeLoss="231.51" rerouteNo="1" devices="vehroute_140525_414_0 tripinfo_140525_414_0 routing_140525_414_0" vType="pkw" speedFactor="0.83" vaporized=""/>
    <tripinfo id="152801_419_0" depart="25299.00" departLane="-297047307_0" departPos="4.40" departSpeed="0.00" departDelay="0.00" arrival="25500.00" arrivalLane="297047309#0_0" arrivalPos="91.17" arrivalSpeed="13.94" duration="201.00" routeLength="439.92" waitingTime="158.00" waitingCount="1" stopTime="0.00" timeLoss="169.11" rerouteNo="1" devices="vehroute_152801_419_0 tripinfo_152801_419_0 routing_152801_419_0" vType="pkw" speedFactor="1.02" vaporized=""/>
    <tripinfo id="137017_412_0" depart="25466.00" departLane="-186623965#18_0" departPos="4.40" departSpeed="0.00" departDelay="0.00" arrival="25500.00" arrivalLane="-22917421#4_0" arrivalPos="96.26" arrivalSpeed="8.95" duration="34.00" routeLength="263.02" waitingTime="3.00" waitingCount="1" stopTime="0.00" timeLoss="12.19" rerouteNo="0" devices="vehroute_137017_412_0 tripinfo_137017_412_0 routing_137017_412_0" vType="pkw" speedFactor="1.16" vaporized=""/>
    <tripinfo id="156503_420_0" depart="25472.00" departLane="297047308_0" departPos="4.40" departSpeed="0.00" departDelay="0.00" arrival="25504.00" arrivalLane="297047309#0_0" arrivalPos="91.17" arrivalSpeed="12.89" duration="32.00" routeLength="211.14" waitingTime="6.00" waitingCount="1" stopTime="0.00" timeLoss="15.22" rerouteNo="1" devices="vehroute_156503_420_0 tripinfo_156503_420_0 routing_156503_420_0" vType="pkw" speedFactor="0.95" vaporized=""/>