<?xml version="1.0" encoding="UTF-8"?>

<!-- generated on 2025-05-20 17:41:32 by Eclipse SUMO sumo Version 1.20.0
<configuration xmlns:xsi="http://www.w3.org/2001/XMLSchema-instance" xsi:noNamespaceSchemaLocation="http://sumo.dlr.de/xsd/sumoConfiguration.xsd">

    <input>
        <net-file value="C:\Users\skang\Desktop\최석환\강의\무인항공딥러닝개론\RESCO-main\resco_benchmark\environments/cologne8/cologne8.net.xml"/>
        <route-files value="C:\Users\skang\Desktop\최석환\강의\무인항공딥러닝개론\RESCO-main\resco_benchmark\environments/cologne8/cologne8.rou.xml"/>
    </input>

    <output>
        <tripinfo-output value="C:\Users\skang\Desktop\최석환\강의\무인항공딥러닝개론\results\MPLight-tr0-cologne8-0-mplight-pressure\tripinfo_83.xml"/>
        <tripinfo-output.write-unfinished value="true"/>
        <vehroute-output value="C:\Users\skang\Desktop\최석환\강의\무인항공딥러닝개론\results\MPLight-tr0-cologne8-0-mplight-pressure\route_83.xml"/>
        <vehroute-output.sorted value="True"/>
        <vehroute-output.write-unfinished value="True"/>
        <collision-output value="C:\Users\skang\Desktop\최석환\강의\무인항공딥러닝개론\results\MPLight-tr0-cologne8-0-mplight-pressure\coll_83.xml"/>
        <statistic-output value="C:\Users\skang\Desktop\최석환\강의\무인항공딥러닝개론\results\MPLight-tr0-cologne8-0-mplight-pressure\stats_83.xml"/>
    </output>

    <time>
        <begin value="25200"/>
        <end value="28800"/>
    </time>

    <processing>
        <time-to-teleport value="-1"/>
    </processing>

    <report>
        <no-warnings value="True"/>
        <no-step-log value="True"/>
    </report>

    <traci_server>
        <remote-port value="57579"/>
    </traci_server>

    <random_number>
        <random value="true"/>
    </random_number>

</configuration>
-->

<tripinfos xmlns:xsi="http://www.w3.org/2001/XMLSchema-instance" xsi:noNamespaceSchemaLocation="http://sumo.dlr.de/xsd/tripinfo_file.xsd">
    <tripinfo id="142890_415_0" depart="25218.00" departLane="-23283579#1_0" departPos="4.40" departSpeed="0.00" departDelay="0.00" arrival="25225.00" arrivalLane="23283579#1_0" arrivalPos="22.22" arrivalSpeed="10.63" duration="7.00" routeLength="44.72" waitingTime="0.00" waitingCount="0" stopTime="0.00" timeLoss="3.41" rerouteNo="0" devices="vehroute_142890_415_0 tripinfo_142890_415_0 routing_142890_415_0" vType="pkw" speedFactor="0.92" vaporized=""/>
    <tripinfo id="137959_412_0" depart="25209.00" departLane="-186623965#18_0" departPos="4.40" departSpeed="0.00" departDelay="0.00" arrival="25242.00" arrivalLane="-22917421#4_0" arrivalPos="96.26" arrivalSpeed="7.53" duration="33.00" routeLength="263.02" waitingTime="0.00" waitingCount="0" stopTime="0.00" timeLoss="6.34" rerouteNo="0" devices="vehroute_137959_412_0 tripinfo_137959_412_0 routing_137959_412_0" vType="pkw" speedFactor="0.94" vaporized=""/>
    <tripinfo id="155570_420_0" depart="25200.00" departLane="-28675510#11_0" departPos="4.40" departSpeed="0.00" departDelay="0.00" arrival="25249.00" arrivalLane="28675510#7_0" arrivalPos="257.94" arrivalSpeed="12.00" duration="49.00" routeLength="516.12" waitingTime="0.00" waitingCount="0" stopTime="0.00" timeLoss="6.65" rerouteNo="0" devices="vehroute_155570_420_0 tripinfo_155570_420_0 routing_155570_420_0" vType="pkw" speedFactor="0.89" vaporized=""/>
    <tripinfo id="134603_411_0" depart="25206.00" departLane="-28675510#11_0" departPos="4.40" departSpeed="0.00" departDelay="0.00" arrival="25250.00" arrivalLane="28675510#7_0" arrivalPos="257.94" arrivalSpeed="13.48" duration="44.00" routeLength="516.12" waitingTime="0.00" waitingCount="0" stopTime="0.00" timeLoss="6.97" rerouteNo="0" devices="vehroute_134603_411_0 tripinfo_134603_411_0 routing_134603_411_0" vType="pkw" speedFactor="1.01" vaporized=""/>
    <tripinfo id="140143_414_0" depart="25211.00" departLane="-28675510#11_0" departPos="4.40" departSpeed="0.00" departDelay="1.00" arrival="25259.00" arrivalLane="28675510#7_0" arrivalPos="257.94" arrivalSpeed="11.95" duration="48.00" routeLength="516.12" waitingTime="0.00" waitingCount="0" stopTime="0.00" timeLoss="6.95" rerouteNo="0" devices="vehroute_140143_414_0 tripinfo_140143_414_0 routing_140143_414_0" vType="pkw" speedFactor="0.92" vaporized=""/>
    <tripinfo id="135663_411_0" depart="25217.00" departLane="-28675510#11_0" departPos="4.40" departSpeed="0.00" departDelay="3.00" arrival="25263.00" arrivalLane="28675510#7_0" arrivalPos="257.94" arrivalSpeed="12.32" duration="46.00" routeLength="516.12" waitingTime="0.00" waitingCount="0" stopTime="0.00" timeLoss="6.01" rerouteNo="0" devices="vehroute_135663_411_0 tripinfo_135663_411_0 routing_135663_411_0" vType="pkw" speedFactor="0.94" vaporized=""/>
    <tripinfo id="140525_414_0" depart="25221.00" departLane="186623965#9_0" departPos="4.40" departSpeed="0.00" departDelay="0.00" arrival="25264.00" arrivalLane="186623965#17_0" arrivalPos="143.63" arrivalSpeed="13.55" duration="43.00" routeLength="527.61" waitingTime="0.00" waitingCount="0" stopTime="0.00" timeLoss="5.09" rerouteNo="1" devices="vehroute_140525_414_0 tripinfo_140525_414_0 routing_140525_414_0" vType="pkw" speedFactor="1.02" vaporized=""/>
    <tripinfo id="149045_417_0" depart="25220.00" departLane="-28675510#11_0" departPos="4.40" departSpeed="0.00" departDelay="3.00" arrival="25265.00" arrivalLane="28675510#7_0" arrivalPos="257.94" arrivalSpeed="16.22" duration="45.00" routeLength="516.12" waitingTime="0.00" waitingCount="0" stopTime="0.00" timeLoss="14.18" rerouteNo="0" devices="vehroute_149045_417_0 tripinfo_149045_417_0 routing_149045_417_0" vType="pkw" speedFactor="1.24" vaporized=""/>
    <tripinfo id="161942_421_0" depart="25233.00" departLane="-42925825#2_0" departPos="4.40" departSpeed="0.00" departDelay="0.00" arrival="25279.00" arrivalLane="42925825#0_0" arrivalPos="254.17" arrivalSpeed="12.38" duration="46.00" routeLength="508.64" waitingTime="0.00" waitingCount="0" stopTime="0.00" timeLoss="7.07" rerouteNo="0" devices="vehroute_161942_421_0 tripinfo_161942_421_0 routing_161942_421_0" vType="pkw" speedFactor="0.96" vaporized=""/>
    <tripinfo id="134428_411_0" depart="25237.00" departLane="-28675510#11_0" departPos="4.40" departSpeed="0.00" departDelay="0.00" arrival="25281.00" arrivalLane="28675510#7_0" arrivalPos="257.94" arrivalSpeed="14.11" duration="44.00" routeLength="516.12" waitingTime="0.00" waitingCount="0" stopTime="0.00" timeLoss="7.33" rerouteNo="0" devices="vehroute_134428_411_0 tripinfo_134428_411_0 routing_134428_411_0" vType="pkw" speedFactor="1.04" vaporized=""/>
    <tripinfo id="163799_422_0" depart="25255.00" departLane="-186623965#18_0" departPos="4.40" departSpeed="0.00" departDelay="0.00" arrival="25286.00" arrivalLane="-22917421#4_0" arrivalPos="96.26" arrivalSpeed="8.23" duration="31.00" routeLength="263.02" waitingTime="1.00" waitingCount="1" stopTime="0.00" timeLoss="7.20" rerouteNo="0" devices="vehroute_163799_422_0 tripinfo_163799_422_0 routing_163799_422_0" vType="pkw" speedFactor="1.04" vaporized=""/>
    <tripinfo id="111571_401_0" depart="25267.00" departLane="-353069169#0_0" departPos="4.40" departSpeed="0.00" departDelay="0.00" arrival="25297.00" arrivalLane="24487264_0" arrivalPos="166.35" arrivalSpeed="11.93" duration="30.00" routeLength="286.19" waitingTime="0.00" waitingCount="0" stopTime="0.00" timeLoss="6.14" rerouteNo="1" devices="vehroute_111571_401_0 tripinfo_111571_401_0 routing_111571_401_0" vType="pkw" speedFactor="0.93" vaporized=""/>
    <tripinfo id="150593_418_0" depart="25297.00" departLane="22959552#0_0" departPos="4.40" departSpeed="0.00" departDelay="0.00" arrival="25310.00" arrivalLane="22959552#0_0" arrivalPos="91.39" arrivalSpeed="7.90" duration="13.00" routeLength="86.99" waitingTime="0.00" waitingCount="0" stopTime="0.00" timeLoss="2.14" rerouteNo="1" devices="vehroute_150593_418_0 tripinfo_150593_418_0 routing_150593_418_0" vType="pkw" speedFactor="1.00" vaporized=""/>
    <tripinfo id="163043_422_0" depart="25214.00" departLane="-28675510#11_0" departPos="4.40" departSpeed="0.00" departDelay="2.00" arrival="25321.00" arrivalLane="8716827#0_0" arrivalPos="109.12" arrivalSpeed="6.76" duration="107.00" routeLength="1154.53" waitingTime="0.00" waitingCount="0" stopTime="0.00" timeLoss="11.80" rerouteNo="1" devices="vehroute_163043_422_0 tripinfo_163043_422_0 routing_163043_422_0" vType="pkw" speedFactor="0.94" vaporized=""/>
    <tripinfo id="163025_422_0" depart="25246.00" departLane="-28675510#11_0" departPos="4.40" departSpeed="0.00" departDelay="0.00" arrival="25334.00" arrivalLane="8716807#1_0" arrivalPos="110.75" arrivalSpeed="7.41" duration="88.00" routeLength="862.02" waitingTime="0.00" waitingCount="0" stopTime="0.00" timeLoss="8.20" rerouteNo="1" devices="vehroute_163025_422_0 tripinfo_163025_422_0 routing_163025_422_0" vType="pkw" speedFactor="0.93" vaporized=""/>
    <tripinfo id="171184_426_0" depart="25326.00" departLane="133081987#0_0" departPos="4.40" departSpeed="0.00" departDelay="0.00" arrival="25343.00" arrivalLane="23283436_0" arrivalPos="65.76" arrivalSpeed="12.92" duration="17.00" routeLength="154.99" waitingTime="0.00" waitingCount="0" stopTime="0.00" timeLoss="5.55" rerouteNo="0" devices="vehroute_171184_426_0 tripinfo_171184_426_0 routing_171184_426_0" vType="pkw" speedFactor="1.02" vaporized=""/>
    <tripinfo id="152887_419_0" depart="25229.00" departLane="-28675510#11_0" departPos="4.40" departSpeed="0.00" departDelay="0.00" arrival="25344.00" arrivalLane="8716827#0_0" arrivalPos="109.12" arrivalSpeed="7.11" duration="115.00" routeLength="1154.53" waitingTime="0.00" waitingCount="0" stopTime="0.00" timeLoss="10.68" rerouteNo="1" devices="vehroute_152887_419_0 tripinfo_152887_419_0 routing_152887_419_0" vType="pkw" speedFactor="0.86" vaporized=""/>
    <tripinfo id="158136_421_0" depart="25240.00" departLane="28675510#1_0" departPos="4.40" departSpeed="0.00" departDelay="0.00" arrival="25355.00" arrivalLane="323416262_0" arrivalPos="87.54" arrivalSpeed="14.17" duration="115.00" routeLength="1126.93" waitingTime="0.00" waitingCount="0" stopTime="0.00" timeLoss="18.07" rerouteNo="1" devices="vehroute_158136_421_0 tripinfo_158136_421_0 routing_158136_421_0" vType="pkw" speedFactor="1.08" vaporized=""/>
    <tripinfo id="144017_416_0" depart="25348.00" departLane="-353069169#0_0" departPos="4.40" departSpeed="0.00" departDelay="0.00" arrival="25366.00" arrivalLane="323416262_0" arrivalPos="87.54" arrivalSpeed="15.84" duration="18.00" routeLength="175.35" waitingTime="0.00" waitingCount="0" stopTime="0.00" timeLoss="6.81" rerouteNo="0" devices="vehroute_144017_416_0 tripinfo_144017_416_0 routing_144017_416_0" vType="pkw" speedFactor="1.22" vaporized=""/>
    <tripinfo id="108769_400_0" depart="25356.00" departLane="-186623965#18_0" departPos="4.40" departSpeed="0.00" departDelay="0.00" arrival="25386.00" arrivalLane="-22917421#4_0" arrivalPos="96.26" arrivalSpeed="7.99" duration="30.00" routeLength="263.02" waitingTime="0.00" waitingCount="0" stopTime="0.00" timeLoss="6.58" rerouteNo="0" devices="vehroute_108769_400_0 tripinfo_108769_400_0 routing_108769_400_0" vType="pkw" speedFactor="1.06" vaporized=""/>
    <tripinfo id="96268_394_0" depart="25369.00" departLane="-186623965#18_0" departPos="4.40" departSpeed="0.00" departDelay="0.00" arrival="25397.00" arrivalLane="-22917421#4_0" arrivalPos="96.26" arrivalSpeed="9.27" duration="28.00" routeLength="263.02" waitingTime="0.00" waitingCount="0" stopTime="0.00" timeLoss="7.00" rerouteNo="0" devices="vehroute_96268_394_0 tripinfo_96268_394_0 routing_96268_394_0" vType="pkw" speedFactor="1.16" vaporized=""/>
    <tripinfo id="157572_421_0" depart="25303.00" departLane="23283470#0_0" departPos="4.40" departSpeed="0.00" departDelay="0.00" arrival="25406.00" arrivalLane="323416262_0" arrivalPos="87.54" arrivalSpeed="13.06" duration="103.00" routeLength="994.79" waitingTime="0.00" waitingCount="0" stopTime="0.00" timeLoss="11.75" rerouteNo="1" devices="vehroute_157572_421_0 tripinfo_157572_421_0 routing_157572_421_0" vType="pkw" speedFactor="1.02" vaporized=""/>
    <tripinfo id="164277_422_0" depart="25343.00" departLane="23285888#0_0" departPos="4.40" departSpeed="0.00" departDelay="0.00" arrival="25406.00" arrivalLane="297047309#0_0" arrivalPos="91.17" arrivalSpeed="12.40" duration="63.00" routeLength="518.80" waitingTime="0.00" waitingCount="0" stopTime="0.00" timeLoss="7.30" rerouteNo="1" devices="vehroute_164277_422_0 tripinfo_164277_422_0 routing_164277_422_0" vType="pkw" speedFactor="0.97" vaporized=""/>
    <tripinfo id="83049_390_0" depart="25408.00" departLane="-4936412_0" departPos="4.40" departSpeed="0.00" departDelay="0.00" arrival="25429.00" arrivalLane="8716827#0_0" arrivalPos="109.12" arrivalSpeed="7.66" duration="21.00" routeLength="148.59" waitingTime="0.00" waitingCount="0" stopTime="0.00" timeLoss="3.37" rerouteNo="0" devices="vehroute_83049_390_0 tripinfo_83049_390_0 routing_83049_390_0" vType="pkw" speedFactor="0.98" vaporized=""/>
    <tripinfo id="175131_428_0" depart="25328.00" departLane="23840713#2_0" departPos="4.40" departSpeed="0.00" departDelay="0.00" arrival="25430.00" arrivalLane="42925825#0_0" arrivalPos="254.17" arrivalSpeed="16.32" duration="102.00" routeLength="1254.72" waitingTime="0.00" waitingCount="0" stopTime="0.00" timeLoss="11.57" rerouteNo="1" devices="vehroute_175131_428_0 tripinfo_175131_428_0 routing_175131_428_0" vType="pkw" speedFactor="1.20" vaporized=""/>
    <tripinfo id="164388_422_0" depart="25405.00" departLane="-186623965#18_0" departPos="4.40" departSpeed="0.00" departDelay="0.00" arrival="25433.00" arrivalLane="-22917421#4_0" arrivalPos="96.26" arrivalSpeed="8.16" duration="28.00" routeLength="263.02" waitingTime="0.00" waitingCount="0" stopTime="0.00" timeLoss="5.39" rerouteNo="0" devices="vehroute_164388_422_0 tripinfo_164388_422_0 routing_164388_422_0" vType="pkw" speedFactor="1.08" vaporized=""/>
    <tripinfo id="149205_417_0" depart="25338.00" departLane="8716807#1_0" departPos="4.40" departSpeed="0.00" departDelay="0.00" arrival="25435.00" arrivalLane="323416262_0" arrivalPos="87.54" arrivalSpeed="11.57" duration="97.00" routeLength="830.79" waitingTime="0.00" waitingCount="0" stopTime="0.00" timeLoss="9.30" rerouteNo="1" devices="vehroute_149205_417_0 tripinfo_149205_417_0 routing_149205_417_0" vType="pkw" speedFactor="0.84" vaporized=""/>
    <tripinfo id="67978_381_0" depart="25412.00" departLane="-4936412_0" departPos="4.40" departSpeed="0.00" departDelay="0.00" arrival="25435.00" arrivalLane="8716827#0_0" arrivalPos="109.12" arrivalSpeed="6.74" duration="23.00" routeLength="148.59" waitingTime="0.00" waitingCount="0" stopTime="0.00" timeLoss="4.44" rerouteNo="0" devices="vehroute_67978_381_0 tripinfo_67978_381_0 routing_67978_381_0" vType="pkw" speedFactor="0.91" vaporized=""/>
    <tripinfo id="179907_430_0" depart="25383.00" departLane="23283470#0_0" departPos="4.40" departSpeed="0.00" departDelay="0.00" arrival="25444.00" arrivalLane="23283579#1_0" arrivalPos="22.22" arrivalSpeed="13.81" duration="61.00" routeLength="531.05" waitingTime="0.00" waitingCount="0" stopTime="0.00" timeLoss="8.62" rerouteNo="1" devices="vehroute_179907_430_0 tripinfo_179907_430_0 routing_179907_430_0" vType="pkw" speedFactor="1.04" vaporized=""/>
    <tripinfo id="148419_417_0" depart="25363.00" departLane="133081987#3_0" departPos="4.40" departSpeed="0.00" departDelay="0.00" arrival="25445.00" arrivalLane="297047309#0_0" arrivalPos="91.17" arrivalSpeed="14.06" duration="82.00" routeLength="785.73" waitingTime="0.00" waitingCount="0" stopTime="0.00" timeLoss="8.74" rerouteNo="1" devices="vehroute_148419_417_0 tripinfo_148419_417_0 routing_148419_417_0" vType="pkw" speedFactor="1.02" vaporized=""/>
    <tripinfo id="118988_405_0" depart="25417.00" departLane="-186623965#18_0" departPos="4.40" departSpeed="0.00" departDelay="2.00" arrival="25447.00" arrivalLane="-22917421#4_0" arrivalPos="96.26" arrivalSpeed="8.72" duration="30.00" routeLength="263.02" waitingTime="0.00" waitingCount="0" stopTime="0.00" timeLoss="6.14" rerouteNo="0" devices="vehroute_118988_405_0 tripinfo_118988_405_0 routing_118988_405_0" vType="pkw" speedFactor="1.05" vaporized=""/>
    <tripinfo id="154646_420_0" depart="25419.00" departLane="25166682#0_0" departPos="4.40" departSpeed="0.00" departDelay="0.00" arrival="25448.00" arrivalLane="323450710#0_0" arrivalPos="95.59" arrivalSpeed="11.29" duration="29.00" routeLength="289.69" waitingTime="0.00" waitingCount="0" stopTime="0.00" timeLoss="4.98" rerouteNo="1" devices="vehroute_154646_420_0 tripinfo_154646_420_0 routing_154646_420_0" vType="pkw" speedFactor="0.87" vaporized=""/>
    <tripinfo id="122677_406_0" depart="25441.00" departLane="-4936412_0" departPos="4.40" departSpeed="0.00" departDelay="0.00" arrival="25461.00" arrivalLane="8716827#0_0" arrivalPos="109.12" arrivalSpeed="7.75" duration="20.00" routeLength="148.59" waitingTime="0.00" waitingCount="0" stopTime="0.00" timeLoss="4.15" rerouteNo="0" devices="vehroute_122677_406_0 tripinfo_122677_406_0 routing_122677_406_0" vType="pkw" speedFactor="1.07" vaporized=""/>
    <tripinfo id="171631_426_0" depart="25415.00" departLane="23283470#0_0" departPos="4.40" departSpeed="0.00" departDelay="0.00" arrival="25472.00" arrivalLane="23283579#1_0" arrivalPos="22.22" arrivalSpeed="15.45" duration="57.00" routeLength="531.05" waitingTime="0.00" waitingCount="0" stopTime="0.00" timeLoss="10.26" rerouteNo="1" devices="vehroute_171631_426_0 tripinfo_171631_426_0 routing_171631_426_0" vType="pkw" speedFactor="1.16" vaporized=""/>
    <tripinfo id="166238_424_0" depart="25449.00" departLane="42925825#0_0" departPos="4.40" departSpeed="0.00" departDelay="0.00" arrival="25478.00" arrivalLane="42925825#0_0" arrivalPos="254.17" arrivalSpeed="8.91" duration="29.00" routeLength="249.77" waitingTime="0.00" waitingCount="0" stopTime="0.00" timeLoss="3.81" rerouteNo="1" devices="vehroute_166238_424_0 tripinfo_166238_424_0 routing_166238_424_0" vType="pkw" speedFactor="0.73" vaporized=""/>
    <tripinfo id="139487_413_0" depart="25456.00" departLane="-4936412_0" departPos="4.40" departSpeed="0.00" departDelay="0.00" arrival="25478.00" arrivalLane="8716827#0_0" arrivalPos="109.12" arrivalSpeed="6.49" duration="22.00" routeLength="148.59" waitingTime="0.00" waitingCount="0" stopTime="0.00" timeLoss="4.28" rerouteNo="0" devices="vehroute_139487_413_0 tripinfo_139487_413_0 routing_139487_413_0" vType="pkw" speedFactor="0.92" vaporized=""/>
    <tripinfo id="148727_417_0" depart="25479.00" departLane="23283579#1_0" departPos="4.40" departSpeed="0.00" departDelay="0.00" arrival="25483.00" arrivalLane="23283579#1_0" arrivalPos="22.22" arrivalSpeed="8.67" duration="4.00" routeLength="17.82" waitingTime="0.00" waitingCount="0" stopTime="0.00" timeLoss="2.46" rerouteNo="1" devices="vehroute_148727_417_0 tripinfo_148727_417_0 routing_148727_417_0" vType="pkw" speedFactor="1.01" vaporized=""/>
    <tripinfo id="146495_416_0" depart="25369.00" departLane="23840712#0_0" departPos="4.40" departSpeed="0.00" departDelay="0.00" arrival="25488.00" arrivalLane="-186623965#14_0" arrivalPos="159.69" arrivalSpeed="13.26" duration="119.00" routeLength="1176.49" waitingTime="0.00" waitingCount="0" stopTime="0.00" timeLoss="11.36" rerouteNo="1" devices="vehroute_146495_416_0 tripinfo_146495_416_0 routing_146495_416_0" vType="pkw" speedFactor="0.97" vaporized=""/>
    <tripinfo id="136088_411_0" depart="25475.00" departLane="-4936412_0" departPos="4.40" departSpeed="0.00" departDelay="0.00" arrival="25497.00" arrivalLane="8716827#0_0" arrivalPos="109.12" arrivalSpeed="7.63" duration="22.00" routeLength="148.59" waitingTime="0.00" waitingCount="0" stopTime="0.00" timeLoss="4.40" rerouteNo="0" devices="vehroute_136088_411_0 tripinfo_136088_411_0 routing_136088_411_0" vType="pkw" speedFactor="0.95" vaporized=""/>
    <tripinfo id="137017_412_0" depart="25466.00" departLane="-186623965#18_0" departPos="4.40" departSpeed="0.00" departDelay="0.00" arrival="25503.00" arrivalLane="-22917421#4_0" arrivalPos="96.26" arrivalSpeed="5.70" duration="37.00" routeLength="263.02" waitingTime="0.00" waitingCount="0" stopTime="0.00" timeLoss="5.89" rerouteNo="0" devices="vehroute_137017_412_0 tripinfo_137017_412_0 routing_137017_412_0" vType="pkw" speedFactor="0.79" vaporized=""/>
    <tripinfo id="115107_403_0" depart="25488.00" departLane="-4936412_0" departPos="4.40" departSpeed="0.00" departDelay="0.00" arrival="25507.00" arrivalLane="8716827#0_0" arrivalPos="109.12" arrivalSpeed="8.53" duration="19.00" routeLength="148.59" waitingTime="0.00" waitingCount="0" stopTime="0.00" timeLoss="4.41" rerouteNo="0" devices="vehroute_115107_403_0 tripinfo_115107_403_0 routing_115107_403_0" vType="pkw" speedFactor="1.13" vaporized=""/>
    <tripinfo id="110175_401_0" depart="25491.00" departLane="-4936412_0" departPos="4.40" departSpeed="0.00" departDelay="1.00" arrival="25507.00" arrivalLane="155723703#0_0" arrivalPos="92.60" arrivalSpeed="13.49" duration="16.00" routeLength="132.82" waitingTime="0.00" waitingCount="0" stopTime="0.00" timeLoss="5.33" rerouteNo="0" devices="vehroute_110175_401_0 tripinfo_110175_401_0 routing_110175_401_0" vType="pkw" speedFactor="0.98" vaporized=""/>
    <tripinfo id="169793_426_0" depart="25405.00" departLane="290365598#0_0" departPos="4.40" departSpeed="0.00" departDelay="0.00" arrival="25510.00" arrivalLane="-186623965#14_0" arrivalPos="159.69" arrivalSpeed="13.32" duration="105.00" routeLength="1074.79" waitingTime="0.00" waitingCount="0" stopTime="0.00" timeLoss="10.25" rerouteNo="1" devices="vehroute_169793_426_0 tripinfo_169793_426_0 routing_169793_426_0" vType="pkw" speedFactor="0.97" vaporized=""/>
    <tripinfo id="168963_425_0" depart="25422.00" departLane="-28675493_0" departPos="4.40" departSpeed="0.00" departDelay="0.00" arrival="25510.00" arrivalLane="23283579#1_0" arrivalPos="22.22" arrivalSpeed="13.05" duration="88.00" routeLength="809.74" waitingTime="0.00" waitingCount="0" stopTime="0.00" timeLoss="11.26" rerouteNo="1" devices="vehroute_168963_425_0 tripinfo_168963_425_0 routing_168963_425_0" vType="pkw" speedFactor="1.02" vaporized=""/>
    <tripinfo id="82749_390_0" depart="25496.00" departLane="-4936412_0" departPos="4.40" departSpeed="0.00" departDelay="0.00" arrival="25511.00" arrivalLane="155723703#0_0" arrivalPos="92.60" arrivalSpeed="13.64" duration="15.00" routeLength="132.82" waitingTime="0.00" waitingCount="0" stopTime="0.00" timeLoss="5.05" rerouteNo="0" devices="vehroute_82749_390_0 tripinfo_82749_390_0 routing_82749_390_0" vType="pkw" speedFactor="1.00" vaporized=""/>
    <tripinfo id="104777_398_0" depart="25500.00" departLane="-4936412_0" departPos="4.40" departSpeed="0.00" departDelay="0.00" arrival="25518.00" arrivalLane="8716827#0_0" arrivalPos="109.12" arrivalSpeed="9.12" duration="18.00" routeLength="148.59" waitingTime="0.00" waitingCount="0" stopTime="0.00" timeLoss="4.57" rerouteNo="0" devices="vehroute_104777_398_0 tripinfo_104777_398_0 routing_104777_398_0" vType="pkw" speedFactor="1.25" vaporized=""/>
    <tripinfo id="177623_429_0" depart="25497.00" departLane="23647118_0" departPos="4.40" departSpeed="0.00" departDelay="0.00" arrival="25539.00" arrivalLane="297047309#0_0" arrivalPos="91.17" arrivalSpeed="13.77" duration="42.00" routeLength="408.32" waitingTime="0.00" waitingCount="0" stopTime="0.00" timeLoss="4.71" rerouteNo="1" devices="vehroute_177623_429_0 tripinfo_177623_429_0 routing_177623_429_0" vType="pkw" speedFactor="1.08" vaporized=""/>
    <tripinfo id="171497_426_0" depart="25456.00" departLane="23647126_0" departPos="4.40" departSpeed="0.00" departDelay="0.00" arrival="25560.00" arrivalLane="23283579#1_0" arrivalPos="22.22" arrivalSpeed="12.20" duration="104.00" routeLength="761.84" waitingTime="0.00" waitingCount="0" stopTime="0.00" timeLoss="13.34" rerouteNo="1" devices="vehroute_171497_426_0 tripinfo_171497_426_0 routing_171497_426_0" vType="pkw" speedFactor="0.91" vaporized=""/>
    <tripinfo id="155960_420_0" depart="25521.00" departLane="-23283472#2_0" departPos="4.40" departSpeed="0.00" departDelay="0.00" arrival="25566.00" arrivalLane="23283436_0" arrivalPos="65.76" arrivalSpeed="12.07" duration="45.00" routeLength="365.77" waitingTime="0.00" waitingCount="0" stopTime="0.00" timeLoss="6.40" rerouteNo="1" devices="vehroute_155960_420_0 tripinfo_155960_420_0 routing_155960_420_0" vType="pkw" speedFactor="0.92" vaporized=""/>
    <tripinfo id="156093_420_0" depart="25584.00" departLane="23283579#1_0" departPos="4.40" departSpeed="0.00" departDelay="0.00" arrival="25589.00" arrivalLane="23283579#1_0" arrivalPos="22.22" arrivalSpeed="8.89" duration="5.00" routeLength="17.82" waitingTime="0.00" waitingCount="0" stopTime="0.00" timeLoss="3.21" rerouteNo="1" devices="vehroute_156093_420_0 tripinfo_156093_420_0 routing_156093_420_0" vType="pkw" speedFactor="1.07" vaporized=""/>
    <tripinfo id="165190_423_0" depart="25427.00" departLane="-186623965#18_0" departPos="4.40" departSpeed="0.00" departDelay="0.00" arrival="25595.00" arrivalLane="-23840935_0" arrivalPos="84.89" arrivalSpeed="7.62" duration="168.00" routeLength="1299.98" waitingTime="0.00" waitingCount="0" stopTime="0.00" timeLoss="19.02" rerouteNo="1" devices="vehroute_165190_423_0 tripinfo_165190_423_0 routing_165190_423_0" vType="pkw" speedFactor="0.96" vaporized=""/>
    <tripinfo id="160078_421_0" depart="25575.00" departLane="-4936412_0" departPos="4.40" departSpeed="0.00" departDelay="0.00" arrival="25596.00" arrivalLane="8716827#0_0" arrivalPos="109.12" arrivalSpeed="8.12" duration="21.00" routeLength="148.59" waitingTime="0.00" waitingCount="0" stopTime="0.00" timeLoss="4.64" rerouteNo="0" devices="vehroute_160078_421_0 tripinfo_160078_421_0 routing_160078_421_0" vType="pkw" speedFactor="1.05" vaporized=""/>
    <tripinfo id="119014_405_0" depart="25580.00" departLane="132042183_0" departPos="4.40" departSpeed="0.00" departDelay="0.00" arrival="25596.00" arrivalLane="-23283472#2_0" arrivalPos="70.88" arrivalSpeed="8.41" duration="16.00" routeLength="103.30" waitingTime="0.00" waitingCount="0" stopTime="0.00" timeLoss="3.16" rerouteNo="0" devices="vehroute_119014_405_0 tripinfo_119014_405_0 routing_119014_405_0" vType="pkw" speedFactor="1.02" vaporized=""/>
    <tripinfo id="118123_405_0" depart="25458.00" departLane="-186623965#18_0" departPos="4.40" departSpeed="0.00" departDelay="0.00" arrival="25599.00" arrivalLane="-23840935_0" arrivalPos="84.89" arrivalSpeed="9.40" duration="141.00" routeLength="1299.98" waitingTime="0.00" waitingCount="0" stopTime="0.00" timeLoss="18.23" rerouteNo="1" devices="vehroute_118123_405_0 tripinfo_118123_405_0 routing_118123_405_0" vType="pkw" speedFactor="1.18" vaporized=""/>
    <tripinfo id="177639_429_0" depart="25414.00" departLane="-186623965#18_0" departPos="4.40" departSpeed="0.00" departDelay="0.00" arrival="25603.00" arrivalLane="23283473_0" arrivalPos="97.06" arrivalSpeed="7.27" duration="189.00" routeLength="1749.94" waitingTime="0.00" waitingCount="0" stopTime="0.00" timeLoss="19.98" rerouteNo="1" devices="vehroute_177639_429_0 tripinfo_177639_429_0 routing_177639_429_0" vType="pkw" speedFactor="0.98" vaporized=""/>
    <tripinfo id="163913_422_0" depart="25581.00" departLane="-4936412_0" departPos="4.40" departSpeed="0.00" departDelay="0.00" arrival="25603.00" arrivalLane="8716827#0_0" arrivalPos="109.12" arrivalSpeed="7.37" duration="22.00" routeLength="148.59" waitingTime="0.00" waitingCount="0" stopTime="0.00" timeLoss="4.24" rerouteNo="0" devices="vehroute_163913_422_0 tripinfo_163913_422_0 routing_163913_422_0" vType="pkw" speedFactor="0.92" vaporized=""/>
    <tripinfo id="102131_396_0" depart="25592.00" departLane="-4936412_0" departPos="4.40" departSpeed="0.00" departDelay="0.00" arrival="25614.00" arrivalLane="8716827#0_0" arrivalPos="109.12" arrivalSpeed="7.84" duration="22.00" routeLength="148.59" waitingTime="0.00" waitingCount="0" stopTime="0.00" timeLoss="4.49" rerouteNo="0" devices="vehroute_102131_396_0 tripinfo_102131_396_0 routing_102131_396_0" vType="pkw" speedFactor="0.96" vaporized=""/>
    <tripinfo id="183189_431_0" depart="25575.00" departLane="23283474_0" departPos="4.40" departSpeed="0.00" departDelay="0.00" arrival="25618.00" arrivalLane="22959552#0_0" arrivalPos="91.39" arrivalSpeed="5.64" duration="43.00" routeLength="257.87" waitingTime="0.00" waitingCount="0" stopTime="0.00" timeLoss="5.13" rerouteNo="1" devices="vehroute_183189_431_0 tripinfo_183189_431_0 routing_183189_431_0" vType="pkw" speedFactor="0.83" vaporized=""/>
    <tripinfo id="133534_410_0" depart="25592.00" departLane="160807420_0" departPos="4.40" departSpeed="0.00" departDelay="0.00" arrival="25621.00" arrivalLane="8716827#0_0" arrivalPos="109.12" arrivalSpeed="10.01" duration="29.00" routeLength="270.84" waitingTime="0.00" waitingCount="0" stopTime="0.00" timeLoss="8.57" rerouteNo="1" devices="vehroute_133534_410_0 tripinfo_133534_410_0 routing_133534_410_0" vType="pkw" speedFactor="1.24" vaporized=""/>
    <tripinfo id="154649_420_0" depart="25466.00" departLane="22959550#3_0" departPos="4.40" departSpeed="0.00" departDelay="0.00" arrival="25623.00" arrivalLane="42925825#0_0" arrivalPos="254.17" arrivalSpeed="11.55" duration="157.00" routeLength="1354.02" waitingTime="0.00" waitingCount="0" stopTime="0.00" timeLoss="15.43" rerouteNo="1" devices="vehroute_154649_420_0 tripinfo_154649_420_0 routing_154649_420_0" vType="pkw" speedFactor="0.85" vaporized=""/>
    <tripinfo id="161177_421_0" depart="25544.00" departLane="23840712#1_0" departPos="4.40" departSpeed="0.00" departDelay="0.00" arrival="25625.00" arrivalLane="297047309#0_0" arrivalPos="91.17" arrivalSpeed="14.21" duration="81.00" routeLength="701.15" waitingTime="0.00" waitingCount="0" stopTime="0.00" timeLoss="9.76" rerouteNo="1" devices="vehroute_161177_421_0 tripinfo_161177_421_0 routing_161177_421_0" vType="pkw" speedFactor="1.07" vaporized=""/>