<?xml version="1.0" encoding="UTF-8"?>

<!-- generated on 2025-05-20 17:42:07 by Eclipse SUMO sumo Version 1.20.0
<configuration xmlns:xsi="http://www.w3.org/2001/XMLSchema-instance" xsi:noNamespaceSchemaLocation="http://sumo.dlr.de/xsd/sumoConfiguration.xsd">

    <input>
        <net-file value="C:\Users\skang\Desktop\최석환\강의\무인항공딥러닝개론\RESCO-main\resco_benchmark\environments/cologne8/cologne8.net.xml"/>
        <route-files value="C:\Users\skang\Desktop\최석환\강의\무인항공딥러닝개론\RESCO-main\resco_benchmark\environments/cologne8/cologne8.rou.xml"/>
    </input>

    <output>
        <tripinfo-output value="C:\Users\skang\Desktop\최석환\강의\무인항공딥러닝개론\results\MPLight-tr0-cologne8-0-mplight-pressure\tripinfo_84.xml"/>
        <tripinfo-output.write-unfinished value="true"/>
        <vehroute-output value="C:\Users\skang\Desktop\최석환\강의\무인항공딥러닝개론\results\MPLight-tr0-cologne8-0-mplight-pressure\route_84.xml"/>
        <vehroute-output.sorted value="True"/>
        <vehroute-output.write-unfinished value="True"/>
        <collision-output value="C:\Users\skang\Desktop\최석환\강의\무인항공딥러닝개론\results\MPLight-tr0-cologne8-0-mplight-pressure\coll_84.xml"/>
        <statistic-output value="C:\Users\skang\Desktop\최석환\강의\무인항공딥러닝개론\results\MPLight-tr0-cologne8-0-mplight-pressure\stats_84.xml"/>
    </output>

    <time>
        <begin value="25200"/>
        <end value="28800"/>
    </time>

    <processing>
        <time-to-teleport value="-1"/>
    </processing>

    <report>
        <no-warnings value="True"/>
        <no-step-log value="True"/>
    </report>

    <traci_server>
        <remote-port value="57588"/>
    </traci_server>

    <random_number>
        <random value="true"/>
    </random_number>

</configuration>
-->

<tripinfos xmlns:xsi="http://www.w3.org/2001/XMLSchema-instance" xsi:noNamespaceSchemaLocation="http://sumo.dlr.de/xsd/tripinfo_file.xsd">
    <tripinfo id="142890_415_0" depart="25218.00" departLane="-23283579#1_0" departPos="4.40" departSpeed="0.00" departDelay="0.00" arrival="25225.00" arrivalLane="23283579#1_0" arrivalPos="22.22" arrivalSpeed="11.87" duration="7.00" routeLength="44.72" waitingTime="0.00" waitingCount="0" stopTime="0.00" timeLoss="4.02" rerouteNo="0" devices="vehroute_142890_415_0 tripinfo_142890_415_0 routing_142890_415_0" vType="pkw" speedFactor="1.09" vaporized=""/>
    <tripinfo id="137959_412_0" depart="25209.00" departLane="-186623965#18_0" departPos="4.40" departSpeed="0.00" departDelay="0.00" arrival="25238.00" arrivalLane="-22917421#4_0" arrivalPos="96.26" arrivalSpeed="8.49" duration="29.00" routeLength="263.02" waitingTime="0.00" waitingCount="0" stopTime="0.00" timeLoss="5.44" rerouteNo="0" devices="vehroute_137959_412_0 tripinfo_137959_412_0 routing_137959_412_0" vType="pkw" speedFactor="1.06" vaporized=""/>
    <tripinfo id="155570_420_0" depart="25200.00" departLane="-28675510#11_0" departPos="4.40" departSpeed="0.00" departDelay="0.00" arrival="25242.00" arrivalLane="28675510#7_0" arrivalPos="257.94" arrivalSpeed="13.70" duration="42.00" routeLength="516.12" waitingTime="0.00" waitingCount="0" stopTime="0.00" timeLoss="5.65" rerouteNo="0" devices="vehroute_155570_420_0 tripinfo_155570_420_0 routing_155570_420_0" vType="pkw" speedFactor="1.03" vaporized=""/>
    <tripinfo id="134603_411_0" depart="25206.00" departLane="-28675510#11_0" departPos="4.40" departSpeed="0.00" departDelay="0.00" arrival="25251.00" arrivalLane="28675510#7_0" arrivalPos="257.94" arrivalSpeed="13.37" duration="45.00" routeLength="516.12" waitingTime="0.00" waitingCount="0" stopTime="0.00" timeLoss="6.25" rerouteNo="0" devices="vehroute_134603_411_0 tripinfo_134603_411_0 routing_134603_411_0" vType="pkw" speedFactor="0.98" vaporized=""/>
    <tripinfo id="140143_414_0" depart="25211.00" departLane="-28675510#11_0" departPos="4.40" departSpeed="0.00" departDelay="1.00" arrival="25252.00" arrivalLane="28675510#7_0" arrivalPos="257.94" arrivalSpeed="16.36" duration="41.00" routeLength="516.12" waitingTime="0.00" waitingCount="0" stopTime="0.00" timeLoss="11.67" rerouteNo="0" devices="vehroute_140143_414_0 tripinfo_140143_414_0 routing_140143_414_0" vType="pkw" speedFactor="1.27" vaporized=""/>
    <tripinfo id="135663_411_0" depart="25217.00" departLane="-28675510#11_0" departPos="4.40" departSpeed="0.00" departDelay="3.00" arrival="25261.00" arrivalLane="28675510#7_0" arrivalPos="257.94" arrivalSpeed="13.21" duration="44.00" routeLength="516.12" waitingTime="0.00" waitingCount="0" stopTime="0.00" timeLoss="5.52" rerouteNo="0" devices="vehroute_135663_411_0 tripinfo_135663_411_0 routing_135663_411_0" vType="pkw" speedFactor="0.97" vaporized=""/>
    <tripinfo id="140525_414_0" depart="25221.00" departLane="186623965#9_0" departPos="4.40" departSpeed="0.00" departDelay="0.00" arrival="25261.00" arrivalLane="186623965#17_0" arrivalPos="143.63" arrivalSpeed="14.05" duration="40.00" routeLength="527.61" waitingTime="0.00" waitingCount="0" stopTime="0.00" timeLoss="5.09" rerouteNo="1" devices="vehroute_140525_414_0 tripinfo_140525_414_0 routing_140525_414_0" vType="pkw" speedFactor="1.09" vaporized=""/>
    <tripinfo id="149045_417_0" depart="25220.00" departLane="-28675510#11_0" departPos="4.40" departSpeed="0.00" departDelay="3.00" arrival="25270.00" arrivalLane="28675510#7_0" arrivalPos="257.94" arrivalSpeed="11.38" duration="50.00" routeLength="516.12" waitingTime="0.00" waitingCount="0" stopTime="0.00" timeLoss="6.19" rerouteNo="0" devices="vehroute_149045_417_0 tripinfo_149045_417_0 routing_149045_417_0" vType="pkw" speedFactor="0.85" vaporized=""/>
    <tripinfo id="161942_421_0" depart="25233.00" departLane="-42925825#2_0" departPos="4.40" departSpeed="0.00" departDelay="0.00" arrival="25282.00" arrivalLane="42925825#0_0" arrivalPos="254.17" arrivalSpeed="12.12" duration="49.00" routeLength="508.64" waitingTime="0.00" waitingCount="0" stopTime="0.00" timeLoss="8.88" rerouteNo="0" devices="vehroute_161942_421_0 tripinfo_161942_421_0 routing_161942_421_0" vType="pkw" speedFactor="0.93" vaporized=""/>
    <tripinfo id="141355_415_0" depart="25232.00" departLane="-186623965#18_0" departPos="4.40" departSpeed="0.00" departDelay="0.00" arrival="25284.00" arrivalLane="42925825#0_0" arrivalPos="254.17" arrivalSpeed="13.36" duration="52.00" routeLength="625.62" waitingTime="0.00" waitingCount="0" stopTime="0.00" timeLoss="8.42" rerouteNo="1" devices="vehroute_141355_415_0 tripinfo_141355_415_0 routing_141355_415_0" vType="pkw" speedFactor="1.03" vaporized=""/>
    <tripinfo id="134428_411_0" depart="25237.00" departLane="-28675510#11_0" departPos="4.40" departSpeed="0.00" departDelay="0.00" arrival="25284.00" arrivalLane="28675510#7_0" arrivalPos="257.94" arrivalSpeed="13.52" duration="47.00" routeLength="516.12" waitingTime="0.00" waitingCount="0" stopTime="0.00" timeLoss="10.78" rerouteNo="0" devices="vehroute_134428_411_0 tripinfo_134428_411_0 routing_134428_411_0" vType="pkw" speedFactor="1.05" vaporized=""/>
    <tripinfo id="163799_422_0" depart="25256.00" departLane="-186623965#18_0" departPos="4.40" departSpeed="0.00" departDelay="1.00" arrival="25290.00" arrivalLane="-22917421#4_0" arrivalPos="96.26" arrivalSpeed="6.13" duration="34.00" routeLength="263.02" waitingTime="0.00" waitingCount="0" stopTime="0.00" timeLoss="5.91" rerouteNo="0" devices="vehroute_163799_422_0 tripinfo_163799_422_0 routing_163799_422_0" vType="pkw" speedFactor="0.88" vaporized=""/>
    <tripinfo id="111571_401_0" depart="25267.00" departLane="-353069169#0_0" departPos="4.40" departSpeed="0.00" departDelay="0.00" arrival="25295.00" arrivalLane="24487264_0" arrivalPos="166.35" arrivalSpeed="14.59" duration="28.00" routeLength="286.19" waitingTime="0.00" waitingCount="0" stopTime="0.00" timeLoss="6.72" rerouteNo="1" devices="vehroute_111571_401_0 tripinfo_111571_401_0 routing_111571_401_0" vType="pkw" speedFactor="1.06" vaporized=""/>
    <tripinfo id="131071_409_0" depart="25236.00" departLane="-186623965#18_0" departPos="4.40" departSpeed="0.00" departDelay="0.00" arrival="25299.00" arrivalLane="42925825#0_0" arrivalPos="254.17" arrivalSpeed="11.02" duration="63.00" routeLength="625.62" waitingTime="2.00" waitingCount="1" stopTime="0.00" timeLoss="11.18" rerouteNo="1" devices="vehroute_131071_409_0 tripinfo_131071_409_0 routing_131071_409_0" vType="pkw" speedFactor="0.88" vaporized=""/>
    <tripinfo id="126900_407_0" depart="25239.00" departLane="-186623965#18_0" departPos="4.40" departSpeed="0.00" departDelay="0.00" arrival="25300.00" arrivalLane="42925825#0_0" arrivalPos="254.17" arrivalSpeed="12.43" duration="61.00" routeLength="625.62" waitingTime="2.00" waitingCount="1" stopTime="0.00" timeLoss="13.24" rerouteNo="1" devices="vehroute_126900_407_0 tripinfo_126900_407_0 routing_126900_407_0" vType="pkw" speedFactor="0.95" vaporized=""/>
    <tripinfo id="126698_407_0" depart="25242.00" departLane="-186623965#18_0" departPos="4.40" departSpeed="0.00" departDelay="1.00" arrival="25302.00" arrivalLane="42925825#0_0" arrivalPos="254.17" arrivalSpeed="11.16" duration="60.00" routeLength="625.62" waitingTime="0.00" waitingCount="0" stopTime="0.00" timeLoss="8.22" rerouteNo="1" devices="vehroute_126698_407_0 tripinfo_126698_407_0 routing_126698_407_0" vType="pkw" speedFactor="0.87" vaporized=""/>
    <tripinfo id="161216_421_0" depart="25250.00" departLane="-186623965#18_0" departPos="4.40" departSpeed="0.00" departDelay="2.00" arrival="25305.00" arrivalLane="42925825#0_0" arrivalPos="254.17" arrivalSpeed="13.11" duration="55.00" routeLength="625.62" waitingTime="0.00" waitingCount="0" stopTime="0.00" timeLoss="10.12" rerouteNo="1" devices="vehroute_161216_421_0 tripinfo_161216_421_0 routing_161216_421_0" vType="pkw" speedFactor="1.02" vaporized=""/>
    <tripinfo id="159622_421_0" depart="25254.00" departLane="-186623965#18_0" departPos="4.40" departSpeed="0.00" departDelay="3.00" arrival="25307.00" arrivalLane="42925825#0_0" arrivalPos="254.17" arrivalSpeed="13.32" duration="53.00" routeLength="625.62" waitingTime="0.00" waitingCount="0" stopTime="0.00" timeLoss="8.12" rerouteNo="1" devices="vehroute_159622_421_0 tripinfo_159622_421_0 routing_159622_421_0" vType="pkw" speedFactor="1.02" vaporized=""/>
    <tripinfo id="150593_418_0" depart="25297.00" departLane="22959552#0_0" departPos="4.40" departSpeed="0.00" departDelay="0.00" arrival="25310.00" arrivalLane="22959552#0_0" arrivalPos="91.39" arrivalSpeed="8.00" duration="13.00" routeLength="86.99" waitingTime="0.00" waitingCount="0" stopTime="0.00" timeLoss="3.11" rerouteNo="1" devices="vehroute_150593_418_0 tripinfo_150593_418_0 routing_150593_418_0" vType="pkw" speedFactor="1.08" vaporized=""/>
    <tripinfo id="163043_422_0" depart="25214.00" departLane="-28675510#11_0" departPos="4.40" departSpeed="0.00" departDelay="2.00" arrival="25312.00" arrivalLane="8716827#0_0" arrivalPos="109.12" arrivalSpeed="7.78" duration="98.00" routeLength="1154.53" waitingTime="0.00" waitingCount="0" stopTime="0.00" timeLoss="9.28" rerouteNo="1" devices="vehroute_163043_422_0 tripinfo_163043_422_0 routing_163043_422_0" vType="pkw" speedFactor="1.00" vaporized=""/>
    <tripinfo id="166162_424_0" depart="25233.00" departLane="22959550#0_0" departPos="4.40" departSpeed="0.00" departDelay="0.00" arrival="25328.00" arrivalLane="28675510#7_0" arrivalPos="257.94" arrivalSpeed="12.67" duration="95.00" routeLength="903.30" waitingTime="0.00" waitingCount="0" stopTime="0.00" timeLoss="9.16" rerouteNo="1" devices="vehroute_166162_424_0 tripinfo_166162_424_0 routing_166162_424_0" vType="pkw" speedFactor="0.98" vaporized=""/>
    <tripinfo id="163025_422_0" depart="25246.00" departLane="-28675510#11_0" departPos="4.40" departSpeed="0.00" departDelay="0.00" arrival="25332.00" arrivalLane="8716807#1_0" arrivalPos="110.75" arrivalSpeed="7.95" duration="86.00" routeLength="862.02" waitingTime="0.00" waitingCount="0" stopTime="0.00" timeLoss="14.26" rerouteNo="1" devices="vehroute_163025_422_0 tripinfo_163025_422_0 routing_163025_422_0" vType="pkw" speedFactor="1.02" vaporized=""/>
    <tripinfo id="158136_421_0" depart="25240.00" departLane="28675510#1_0" departPos="4.40" departSpeed="0.00" departDelay="0.00" arrival="25341.00" arrivalLane="323416262_0" arrivalPos="87.54" arrivalSpeed="16.07" duration="101.00" routeLength="1126.93" waitingTime="0.00" waitingCount="0" stopTime="0.00" timeLoss="16.31" rerouteNo="1" devices="vehroute_158136_421_0 tripinfo_158136_421_0 routing_158136_421_0" vType="pkw" speedFactor="1.24" vaporized=""/>
    <tripinfo id="171184_426_0" depart="25326.00" departLane="133081987#0_0" departPos="4.40" departSpeed="0.00" departDelay="0.00" arrival="25344.00" arrivalLane="23283436_0" arrivalPos="65.76" arrivalSpeed="12.77" duration="18.00" routeLength="154.99" waitingTime="0.00" waitingCount="0" stopTime="0.00" timeLoss="5.65" rerouteNo="0" devices="vehroute_171184_426_0 tripinfo_171184_426_0 routing_171184_426_0" vType="pkw" speedFactor="0.94" vaporized=""/>
    <tripinfo id="174787_427_0" depart="25287.00" departLane="22959550#3_0" departPos="4.40" departSpeed="0.00" departDelay="0.00" arrival="25358.00" arrivalLane="28675510#7_0" arrivalPos="257.94" arrivalSpeed="13.98" duration="71.00" routeLength="757.45" waitingTime="0.00" waitingCount="0" stopTime="0.00" timeLoss="7.28" rerouteNo="1" devices="vehroute_174787_427_0 tripinfo_174787_427_0 routing_174787_427_0" vType="pkw" speedFactor="1.06" vaporized=""/>
    <tripinfo id="144017_416_0" depart="25348.00" departLane="-353069169#0_0" departPos="4.40" departSpeed="0.00" departDelay="0.00" arrival="25367.00" arrivalLane="323416262_0" arrivalPos="87.54" arrivalSpeed="12.60" duration="19.00" routeLength="175.35" waitingTime="0.00" waitingCount="0" stopTime="0.00" timeLoss="5.29" rerouteNo="0" devices="vehroute_144017_416_0 tripinfo_144017_416_0 routing_144017_416_0" vType="pkw" speedFactor="0.96" vaporized=""/>
    <tripinfo id="152887_419_0" depart="25229.00" departLane="-28675510#11_0" departPos="4.40" departSpeed="0.00" departDelay="0.00" arrival="25368.00" arrivalLane="8716827#0_0" arrivalPos="109.12" arrivalSpeed="5.32" duration="139.00" routeLength="1154.53" waitingTime="0.00" waitingCount="0" stopTime="0.00" timeLoss="12.86" rerouteNo="1" devices="vehroute_152887_419_0 tripinfo_152887_419_0 routing_152887_419_0" vType="pkw" speedFactor="0.71" vaporized=""/>
    <tripinfo id="142950_415_0" depart="25274.00" departLane="-28675510#11_0" departPos="4.40" departSpeed="0.00" departDelay="0.00" arrival="25370.00" arrivalLane="155723703#0_0" arrivalPos="92.60" arrivalSpeed="12.81" duration="96.00" routeLength="1137.50" waitingTime="0.00" waitingCount="0" stopTime="0.00" timeLoss="9.57" rerouteNo="1" devices="vehroute_142950_415_0 tripinfo_142950_415_0 routing_142950_415_0" vType="pkw" speedFactor="0.95" vaporized=""/>
    <tripinfo id="146391_416_0" depart="25313.00" departLane="-28675510#0_0" departPos="4.40" departSpeed="0.00" departDelay="0.00" arrival="25378.00" arrivalLane="28675510#7_0" arrivalPos="257.94" arrivalSpeed="12.73" duration="65.00" routeLength="752.27" waitingTime="0.00" waitingCount="0" stopTime="0.00" timeLoss="7.15" rerouteNo="1" devices="vehroute_146391_416_0 tripinfo_146391_416_0 routing_146391_416_0" vType="pkw" speedFactor="0.95" vaporized=""/>
    <tripinfo id="108769_400_0" depart="25356.00" departLane="-186623965#18_0" departPos="4.40" departSpeed="0.00" departDelay="0.00" arrival="25390.00" arrivalLane="-22917421#4_0" arrivalPos="96.26" arrivalSpeed="6.02" duration="34.00" routeLength="263.02" waitingTime="0.00" waitingCount="0" stopTime="0.00" timeLoss="5.83" rerouteNo="0" devices="vehroute_108769_400_0 tripinfo_108769_400_0 routing_108769_400_0" vType="pkw" speedFactor="0.86" vaporized=""/>
    <tripinfo id="164277_422_0" depart="25343.00" departLane="23285888#0_0" departPos="4.40" departSpeed="0.00" departDelay="0.00" arrival="25397.00" arrivalLane="297047309#0_0" arrivalPos="91.17" arrivalSpeed="15.77" duration="54.00" routeLength="518.80" waitingTime="0.00" waitingCount="0" stopTime="0.00" timeLoss="7.47" rerouteNo="1" devices="vehroute_164277_422_0 tripinfo_164277_422_0 routing_164277_422_0" vType="pkw" speedFactor="1.17" vaporized=""/>
    <tripinfo id="96268_394_0" depart="25369.00" departLane="-186623965#18_0" departPos="4.40" departSpeed="0.00" departDelay="0.00" arrival="25400.00" arrivalLane="-22917421#4_0" arrivalPos="96.26" arrivalSpeed="7.76" duration="31.00" routeLength="263.02" waitingTime="0.00" waitingCount="0" stopTime="0.00" timeLoss="5.01" rerouteNo="0" devices="vehroute_96268_394_0 tripinfo_96268_394_0 routing_96268_394_0" vType="pkw" speedFactor="0.96" vaporized=""/>
    <tripinfo id="157572_421_0" depart="25303.00" departLane="23283470#0_0" departPos="4.40" departSpeed="0.00" departDelay="0.00" arrival="25404.00" arrivalLane="323416262_0" arrivalPos="87.54" arrivalSpeed="13.63" duration="101.00" routeLength="994.79" waitingTime="0.00" waitingCount="0" stopTime="0.00" timeLoss="10.10" rerouteNo="1" devices="vehroute_157572_421_0 tripinfo_157572_421_0 routing_157572_421_0" vType="pkw" speedFactor="1.03" vaporized=""/>
    <tripinfo id="149205_417_0" depart="25338.00" departLane="8716807#1_0" departPos="4.40" departSpeed="0.00" departDelay="0.00" arrival="25425.00" arrivalLane="323416262_0" arrivalPos="87.54" arrivalSpeed="11.98" duration="87.00" routeLength="830.79" waitingTime="0.00" waitingCount="0" stopTime="0.00" timeLoss="7.82" rerouteNo="1" devices="vehroute_149205_417_0 tripinfo_149205_417_0 routing_149205_417_0" vType="pkw" speedFactor="0.93" vaporized=""/>
    <tripinfo id="83049_390_0" depart="25408.00" departLane="-4936412_0" departPos="4.40" departSpeed="0.00" departDelay="0.00" arrival="25429.00" arrivalLane="8716827#0_0" arrivalPos="109.12" arrivalSpeed="7.91" duration="21.00" routeLength="148.59" waitingTime="0.00" waitingCount="0" stopTime="0.00" timeLoss="4.38" rerouteNo="0" devices="vehroute_83049_390_0 tripinfo_83049_390_0 routing_83049_390_0" vType="pkw" speedFactor="1.03" vaporized=""/>
    <tripinfo id="175131_428_0" depart="25328.00" departLane="23840713#2_0" departPos="4.40" departSpeed="0.00" departDelay="0.00" arrival="25431.00" arrivalLane="42925825#0_0" arrivalPos="254.17" arrivalSpeed="16.26" duration="103.00" routeLength="1254.72" waitingTime="0.00" waitingCount="0" stopTime="0.00" timeLoss="11.54" rerouteNo="1" devices="vehroute_175131_428_0 tripinfo_175131_428_0 routing_175131_428_0" vType="pkw" speedFactor="1.19" vaporized=""/>
    <tripinfo id="67978_381_0" depart="25412.00" departLane="-4936412_0" departPos="4.40" departSpeed="0.00" departDelay="0.00" arrival="25434.00" arrivalLane="8716827#0_0" arrivalPos="109.12" arrivalSpeed="7.44" duration="22.00" routeLength="148.59" waitingTime="0.00" waitingCount="0" stopTime="0.00" timeLoss="4.35" rerouteNo="0" devices="vehroute_67978_381_0 tripinfo_67978_381_0 routing_67978_381_0" vType="pkw" speedFactor="0.96" vaporized=""/>
    <tripinfo id="164388_422_0" depart="25405.00" departLane="-186623965#18_0" departPos="4.40" departSpeed="0.00" departDelay="0.00" arrival="25441.00" arrivalLane="-22917421#4_0" arrivalPos="96.26" arrivalSpeed="6.05" duration="36.00" routeLength="263.02" waitingTime="0.00" waitingCount="0" stopTime="0.00" timeLoss="5.73" rerouteNo="0" devices="vehroute_164388_422_0 tripinfo_164388_422_0 routing_164388_422_0" vType="pkw" speedFactor="0.82" vaporized=""/>
    <tripinfo id="148419_417_0" depart="25363.00" departLane="133081987#3_0" departPos="4.40" departSpeed="0.00" departDelay="0.00" arrival="25442.00" arrivalLane="297047309#0_0" arrivalPos="91.17" arrivalSpeed="14.21" duration="79.00" routeLength="785.73" waitingTime="0.00" waitingCount="0" stopTime="0.00" timeLoss="8.54" rerouteNo="1" devices="vehroute_148419_417_0 tripinfo_148419_417_0 routing_148419_417_0" vType="pkw" speedFactor="1.06" vaporized=""/>
    <tripinfo id="154646_420_0" depart="25419.00" departLane="25166682#0_0" departPos="4.40" departSpeed="0.00" departDelay="0.00" arrival="25446.00" arrivalLane="323450710#0_0" arrivalPos="95.59" arrivalSpeed="14.07" duration="27.00" routeLength="289.69" waitingTime="0.00" waitingCount="0" stopTime="0.00" timeLoss="6.32" rerouteNo="1" devices="vehroute_154646_420_0 tripinfo_154646_420_0 routing_154646_420_0" vType="pkw" speedFactor="1.03" vaporized=""/>
    <tripinfo id="118988_405_0" depart="25417.00" departLane="-186623965#18_0" departPos="4.40" departSpeed="0.00" departDelay="2.00" arrival="25451.00" arrivalLane="-22917421#4_0" arrivalPos="96.26" arrivalSpeed="6.77" duration="34.00" routeLength="263.02" waitingTime="0.00" waitingCount="0" stopTime="0.00" timeLoss="5.43" rerouteNo="0" devices="vehroute_118988_405_0 tripinfo_118988_405_0 routing_118988_405_0" vType="pkw" speedFactor="0.85" vaporized=""/>
    <tripinfo id="122677_406_0" depart="25441.00" departLane="-4936412_0" departPos="4.40" departSpeed="0.00" departDelay="0.00" arrival="25463.00" arrivalLane="8716827#0_0" arrivalPos="109.12" arrivalSpeed="7.34" duration="22.00" routeLength="148.59" waitingTime="0.00" waitingCount="0" stopTime="0.00" timeLoss="3.90" rerouteNo="0" devices="vehroute_122677_406_0 tripinfo_122677_406_0 routing_122677_406_0" vType="pkw" speedFactor="0.91" vaporized=""/>
    <tripinfo id="145712_416_0" depart="25405.00" departLane="-28675510#0_0" departPos="4.40" departSpeed="0.00" departDelay="0.00" arrival="25471.00" arrivalLane="28675510#7_0" arrivalPos="257.94" arrivalSpeed="11.96" duration="66.00" routeLength="752.27" waitingTime="0.00" waitingCount="0" stopTime="0.00" timeLoss="7.21" rerouteNo="1" devices="vehroute_145712_416_0 tripinfo_145712_416_0 routing_145712_416_0" vType="pkw" speedFactor="0.93" vaporized=""/>
    <tripinfo id="139487_413_0" depart="25456.00" departLane="-4936412_0" departPos="4.40" departSpeed="0.00" departDelay="0.00" arrival="25476.00" arrivalLane="8716827#0_0" arrivalPos="109.12" arrivalSpeed="7.47" duration="20.00" routeLength="148.59" waitingTime="0.00" waitingCount="0" stopTime="0.00" timeLoss="4.05" rerouteNo="0" devices="vehroute_139487_413_0 tripinfo_139487_413_0 routing_139487_413_0" vType="pkw" speedFactor="1.02" vaporized=""/>
    <tripinfo id="166238_424_0" depart="25449.00" departLane="42925825#0_0" departPos="4.40" departSpeed="0.00" departDelay="0.00" arrival="25479.00" arrivalLane="42925825#0_0" arrivalPos="254.17" arrivalSpeed="9.25" duration="30.00" routeLength="249.77" waitingTime="0.00" waitingCount="0" stopTime="0.00" timeLoss="3.69" rerouteNo="1" devices="vehroute_166238_424_0 tripinfo_166238_424_0 routing_166238_424_0" vType="pkw" speedFactor="0.70" vaporized=""/>
    <tripinfo id="148727_417_0" depart="25479.00" departLane="23283579#1_0" departPos="4.40" departSpeed="0.00" departDelay="0.00" arrival="25483.00" arrivalLane="23283579#1_0" arrivalPos="22.22" arrivalSpeed="8.20" duration="4.00" routeLength="17.82" waitingTime="0.00" waitingCount="0" stopTime="0.00" timeLoss="2.82" rerouteNo="1" devices="vehroute_148727_417_0 tripinfo_148727_417_0 routing_148727_417_0" vType="pkw" speedFactor="1.17" vaporized=""/>
    <tripinfo id="146495_416_0" depart="25369.00" departLane="23840712#0_0" departPos="4.40" departSpeed="0.00" departDelay="0.00" arrival="25487.00" arrivalLane="-186623965#14_0" arrivalPos="159.69" arrivalSpeed="12.24" duration="118.00" routeLength="1176.49" waitingTime="0.00" waitingCount="0" stopTime="0.00" timeLoss="10.42" rerouteNo="1" devices="vehroute_146495_416_0 tripinfo_146495_416_0 routing_146495_416_0" vType="pkw" speedFactor="0.97" vaporized=""/>
    <tripinfo id="171631_426_0" depart="25415.00" departLane="23283470#0_0" departPos="4.40" departSpeed="0.00" departDelay="0.00" arrival="25487.00" arrivalLane="23283579#1_0" arrivalPos="22.22" arrivalSpeed="11.37" duration="72.00" routeLength="531.05" waitingTime="0.00" waitingCount="0" stopTime="0.00" timeLoss="9.42" rerouteNo="1" devices="vehroute_171631_426_0 tripinfo_171631_426_0 routing_171631_426_0" vType="pkw" speedFactor="0.86" vaporized=""/>
    <tripinfo id="169793_426_0" depart="25405.00" departLane="290365598#0_0" departPos="4.40" departSpeed="0.00" departDelay="0.00" arrival="25492.00" arrivalLane="-186623965#14_0" arrivalPos="159.69" arrivalSpeed="15.43" duration="87.00" routeLength="1074.79" waitingTime="0.00" waitingCount="0" stopTime="0.00" timeLoss="9.19" rerouteNo="1" devices="vehroute_169793_426_0 tripinfo_169793_426_0 routing_169793_426_0" vType="pkw" speedFactor="1.18" vaporized=""/>
    <tripinfo id="136088_411_0" depart="25475.00" departLane="-4936412_0" departPos="4.40" departSpeed="0.00" departDelay="0.00" arrival="25494.00" arrivalLane="8716827#0_0" arrivalPos="109.12" arrivalSpeed="8.70" duration="19.00" routeLength="148.59" waitingTime="0.00" waitingCount="0" stopTime="0.00" timeLoss="4.16" rerouteNo="0" devices="vehroute_136088_411_0 tripinfo_136088_411_0 routing_136088_411_0" vType="pkw" speedFactor="1.14" vaporized=""/>
    <tripinfo id="137017_412_0" depart="25466.00" departLane="-186623965#18_0" departPos="4.40" departSpeed="0.00" departDelay="0.00" arrival="25497.00" arrivalLane="-22917421#4_0" arrivalPos="96.26" arrivalSpeed="7.10" duration="31.00" routeLength="263.02" waitingTime="0.00" waitingCount="0" stopTime="0.00" timeLoss="5.70" rerouteNo="0" devices="vehroute_137017_412_0 tripinfo_137017_412_0 routing_137017_412_0" vType="pkw" speedFactor="0.98" vaporized=""/>
    <tripinfo id="110175_401_0" depart="25490.00" departLane="-4936412_0" departPos="4.40" departSpeed="0.00" departDelay="0.00" arrival="25505.00" arrivalLane="155723703#0_0" arrivalPos="92.60" arrivalSpeed="11.96" duration="15.00" routeLength="132.82" waitingTime="0.00" waitingCount="0" stopTime="0.00" timeLoss="4.09" rerouteNo="0" devices="vehroute_110175_401_0 tripinfo_110175_401_0 routing_110175_401_0" vType="pkw" speedFactor="0.89" vaporized=""/>
    <tripinfo id="168963_425_0" depart="25422.00" departLane="-28675493_0" departPos="4.40" departSpeed="0.00" departDelay="0.00" arrival="25508.00" arrivalLane="23283579#1_0" arrivalPos="22.22" arrivalSpeed="14.80" duration="86.00" routeLength="809.74" waitingTime="0.00" waitingCount="0" stopTime="0.00" timeLoss="12.48" rerouteNo="1" devices="vehroute_168963_425_0 tripinfo_168963_425_0 routing_168963_425_0" vType="pkw" speedFactor="1.07" vaporized=""/>
    <tripinfo id="82749_390_0" depart="25496.00" departLane="-4936412_0" departPos="4.40" departSpeed="0.00" departDelay="0.00" arrival="25509.00" arrivalLane="155723703#0_0" arrivalPos="92.60" arrivalSpeed="16.37" duration="13.00" routeLength="132.82" waitingTime="0.00" waitingCount="0" stopTime="0.00" timeLoss="4.57" rerouteNo="0" devices="vehroute_82749_390_0 tripinfo_82749_390_0 routing_82749_390_0" vType="pkw" speedFactor="1.26" vaporized=""/>
    <tripinfo id="115107_403_0" depart="25488.00" departLane="-4936412_0" departPos="4.40" departSpeed="0.00" departDelay="0.00" arrival="25511.00" arrivalLane="8716827#0_0" arrivalPos="109.12" arrivalSpeed="6.57" duration="23.00" routeLength="148.59" waitingTime="0.00" waitingCount="0" stopTime="0.00" timeLoss="4.17" rerouteNo="0" devices="vehroute_115107_403_0 tripinfo_115107_403_0 routing_115107_403_0" vType="pkw" speedFactor="0.86" vaporized=""/>
    <tripinfo id="149528_417_0" depart="25414.00" departLane="-23840712#0_0" departPos="4.40" departSpeed="0.00" departDelay="0.00" arrival="25521.00" arrivalLane="28675510#7_0" arrivalPos="257.94" arrivalSpeed="12.19" duration="107.00" routeLength="919.80" waitingTime="0.00" waitingCount="0" stopTime="0.00" timeLoss="11.22" rerouteNo="1" devices="vehroute_149528_417_0 tripinfo_149528_417_0 routing_149528_417_0" vType="pkw" speedFactor="0.90" vaporized=""/>
    <tripinfo id="104777_398_0" depart="25500.00" departLane="-4936412_0" departPos="4.40" departSpeed="0.00" departDelay="0.00" arrival="25522.00" arrivalLane="8716827#0_0" arrivalPos="109.12" arrivalSpeed="7.00" duration="22.00" routeLength="148.59" waitingTime="0.00" waitingCount="0" stopTime="0.00" timeLoss="4.75" rerouteNo="0" devices="vehroute_104777_398_0 tripinfo_104777_398_0 routing_104777_398_0" vType="pkw" speedFactor="0.96" vaporized=""/>
    <tripinfo id="161682_421_0" depart="25419.00" departLane="-23840712#0_0" departPos="4.40" departSpeed="0.00" departDelay="0.00" arrival="25523.00" arrivalLane="28675510#7_0" arrivalPos="257.94" arrivalSpeed="14.61" duration="104.00" routeLength="919.80" waitingTime="0.00" waitingCount="0" stopTime="0.00" timeLoss="21.26" rerouteNo="1" devices="vehroute_161682_421_0 tripinfo_161682_421_0 routing_161682_421_0" vType="pkw" speedFactor="1.05" vaporized=""/>
    <tripinfo id="177623_429_0" depart="25497.00" departLane="23647118_0" departPos="4.40" departSpeed="0.00" departDelay="0.00" arrival="25542.00" arrivalLane="297047309#0_0" arrivalPos="91.17" arrivalSpeed="13.83" duration="45.00" routeLength="408.32" waitingTime="0.00" waitingCount="0" stopTime="0.00" timeLoss="5.80" rerouteNo="1" devices="vehroute_177623_429_0 tripinfo_177623_429_0 routing_177623_429_0" vType="pkw" speedFactor="1.04" vaporized=""/>
    <tripinfo id="171497_426_0" depart="25456.00" departLane="23647126_0" departPos="4.40" departSpeed="0.00" departDelay="0.00" arrival="25559.00" arrivalLane="23283579#1_0" arrivalPos="22.22" arrivalSpeed="11.65" duration="103.00" routeLength="761.84" waitingTime="0.00" waitingCount="0" stopTime="0.00" timeLoss="13.44" rerouteNo="1" devices="vehroute_171497_426_0 tripinfo_171497_426_0 routing_171497_426_0" vType="pkw" speedFactor="0.92" vaporized=""/>
    <tripinfo id="155960_420_0" depart="25521.00" departLane="-23283472#2_0" departPos="4.40" departSpeed="0.00" departDelay="0.00" arrival="25572.00" arrivalLane="23283436_0" arrivalPos="65.76" arrivalSpeed="10.33" duration="51.00" routeLength="365.77" waitingTime="0.00" waitingCount="0" stopTime="0.00" timeLoss="6.94" rerouteNo="1" devices="vehroute_155960_420_0 tripinfo_155960_420_0 routing_155960_420_0" vType="pkw" speedFactor="0.79" vaporized=""/>