<?xml version="1.0" encoding="UTF-8"?>

<!-- generated on 2025-05-20 17:37:00 by Eclipse SUMO sumo Version 1.20.0
<configuration xmlns:xsi="http://www.w3.org/2001/XMLSchema-instance" xsi:noNamespaceSchemaLocation="http://sumo.dlr.de/xsd/sumoConfiguration.xsd">

    <input>
        <net-file value="C:\Users\skang\Desktop\최석환\강의\무인항공딥러닝개론\RESCO-main\resco_benchmark\environments/cologne8/cologne8.net.xml"/>
        <route-files value="C:\Users\skang\Desktop\최석환\강의\무인항공딥러닝개론\RESCO-main\resco_benchmark\environments/cologne8/cologne8.rou.xml"/>
    </input>

    <output>
        <tripinfo-output value="C:\Users\skang\Desktop\최석환\강의\무인항공딥러닝개론\results\MPLight-tr0-cologne8-0-mplight-pressure\tripinfo_75.xml"/>
        <tripinfo-output.write-unfinished value="true"/>
        <vehroute-output value="C:\Users\skang\Desktop\최석환\강의\무인항공딥러닝개론\results\MPLight-tr0-cologne8-0-mplight-pressure\route_75.xml"/>
        <vehroute-output.sorted value="True"/>
        <vehroute-output.write-unfinished value="True"/>
        <collision-output value="C:\Users\skang\Desktop\최석환\강의\무인항공딥러닝개론\results\MPLight-tr0-cologne8-0-mplight-pressure\coll_75.xml"/>
        <statistic-output value="C:\Users\skang\Desktop\최석환\강의\무인항공딥러닝개론\results\MPLight-tr0-cologne8-0-mplight-pressure\stats_75.xml"/>
    </output>

    <time>
        <begin value="25200"/>
        <end value="28800"/>
    </time>

    <processing>
        <time-to-teleport value="-1"/>
    </processing>

    <report>
        <no-warnings value="True"/>
        <no-step-log value="True"/>
    </report>

    <traci_server>
        <remote-port value="57479"/>
    </traci_server>

    <random_number>
        <random value="true"/>
    </random_number>

</configuration>
-->

<tripinfos xmlns:xsi="http://www.w3.org/2001/XMLSchema-instance" xsi:noNamespaceSchemaLocation="http://sumo.dlr.de/xsd/tripinfo_file.xsd">
    <tripinfo id="142890_415_0" depart="25218.00" departLane="-23283579#1_0" departPos="4.40" departSpeed="0.00" departDelay="0.00" arrival="25225.00" arrivalLane="23283579#1_0" arrivalPos="22.22" arrivalSpeed="11.75" duration="7.00" routeLength="44.72" waitingTime="0.00" waitingCount="0" stopTime="0.00" timeLoss="3.81" rerouteNo="0" devices="vehroute_142890_415_0 tripinfo_142890_415_0 routing_142890_415_0" vType="pkw" speedFactor="1.01" vaporized=""/>
    <tripinfo id="155570_420_0" depart="25200.00" departLane="-28675510#11_0" departPos="4.40" departSpeed="0.00" departDelay="0.00" arrival="25247.00" arrivalLane="28675510#7_0" arrivalPos="257.94" arrivalSpeed="12.35" duration="47.00" routeLength="516.12" waitingTime="0.00" waitingCount="0" stopTime="0.00" timeLoss="6.27" rerouteNo="0" devices="vehroute_155570_420_0 tripinfo_155570_420_0 routing_155570_420_0" vType="pkw" speedFactor="0.93" vaporized=""/>
    <tripinfo id="134603_411_0" depart="25206.00" departLane="-28675510#11_0" departPos="4.40" departSpeed="0.00" departDelay="0.00" arrival="25248.00" arrivalLane="28675510#7_0" arrivalPos="257.94" arrivalSpeed="13.96" duration="42.00" routeLength="516.12" waitingTime="0.00" waitingCount="0" stopTime="0.00" timeLoss="5.92" rerouteNo="0" devices="vehroute_134603_411_0 tripinfo_134603_411_0 routing_134603_411_0" vType="pkw" speedFactor="1.03" vaporized=""/>
    <tripinfo id="140143_414_0" depart="25212.00" departLane="-28675510#11_0" departPos="4.40" departSpeed="0.00" departDelay="2.00" arrival="25253.00" arrivalLane="28675510#7_0" arrivalPos="257.94" arrivalSpeed="15.56" duration="41.00" routeLength="516.12" waitingTime="0.00" waitingCount="0" stopTime="0.00" timeLoss="8.04" rerouteNo="0" devices="vehroute_140143_414_0 tripinfo_140143_414_0 routing_140143_414_0" vType="pkw" speedFactor="1.14" vaporized=""/>
    <tripinfo id="135663_411_0" depart="25217.00" departLane="-28675510#11_0" departPos="4.40" departSpeed="0.00" departDelay="3.00" arrival="25259.00" arrivalLane="28675510#7_0" arrivalPos="257.94" arrivalSpeed="15.95" duration="42.00" routeLength="516.12" waitingTime="0.00" waitingCount="0" stopTime="0.00" timeLoss="9.69" rerouteNo="0" devices="vehroute_135663_411_0 tripinfo_135663_411_0 routing_135663_411_0" vType="pkw" speedFactor="1.17" vaporized=""/>
    <tripinfo id="137959_412_0" depart="25209.00" departLane="-186623965#18_0" departPos="4.40" departSpeed="0.00" departDelay="0.00" arrival="25262.00" arrivalLane="-22917421#4_0" arrivalPos="96.26" arrivalSpeed="6.50" duration="53.00" routeLength="263.02" waitingTime="16.00" waitingCount="1" stopTime="0.00" timeLoss="24.38" rerouteNo="0" devices="vehroute_137959_412_0 tripinfo_137959_412_0 routing_137959_412_0" vType="pkw" speedFactor="0.87" vaporized=""/>
    <tripinfo id="149045_417_0" depart="25220.00" departLane="-28675510#11_0" departPos="4.40" departSpeed="0.00" departDelay="3.00" arrival="25266.00" arrivalLane="28675510#7_0" arrivalPos="257.94" arrivalSpeed="12.78" duration="46.00" routeLength="516.12" waitingTime="0.00" waitingCount="0" stopTime="0.00" timeLoss="7.67" rerouteNo="0" devices="vehroute_149045_417_0 tripinfo_149045_417_0 routing_149045_417_0" vType="pkw" speedFactor="0.99" vaporized=""/>
    <tripinfo id="134428_411_0" depart="25237.00" departLane="-28675510#11_0" departPos="4.40" departSpeed="0.00" departDelay="0.00" arrival="25280.00" arrivalLane="28675510#7_0" arrivalPos="257.94" arrivalSpeed="14.15" duration="43.00" routeLength="516.12" waitingTime="0.00" waitingCount="0" stopTime="0.00" timeLoss="6.70" rerouteNo="0" devices="vehroute_134428_411_0 tripinfo_134428_411_0 routing_134428_411_0" vType="pkw" speedFactor="1.04" vaporized=""/>
    <tripinfo id="161942_421_0" depart="25233.00" departLane="-42925825#2_0" departPos="4.40" departSpeed="0.00" departDelay="0.00" arrival="25282.00" arrivalLane="42925825#0_0" arrivalPos="254.17" arrivalSpeed="11.39" duration="49.00" routeLength="508.64" waitingTime="0.00" waitingCount="0" stopTime="0.00" timeLoss="5.24" rerouteNo="0" devices="vehroute_161942_421_0 tripinfo_161942_421_0 routing_161942_421_0" vType="pkw" speedFactor="0.84" vaporized=""/>
    <tripinfo id="163799_422_0" depart="25256.00" departLane="-186623965#18_0" departPos="4.40" departSpeed="0.00" departDelay="1.00" arrival="25283.00" arrivalLane="-22917421#4_0" arrivalPos="96.26" arrivalSpeed="9.56" duration="27.00" routeLength="263.02" waitingTime="0.00" waitingCount="0" stopTime="0.00" timeLoss="5.99" rerouteNo="0" devices="vehroute_163799_422_0 tripinfo_163799_422_0 routing_163799_422_0" vType="pkw" speedFactor="1.16" vaporized=""/>
    <tripinfo id="111571_401_0" depart="25267.00" departLane="-353069169#0_0" departPos="4.40" departSpeed="0.00" departDelay="0.00" arrival="25292.00" arrivalLane="24487264_0" arrivalPos="166.35" arrivalSpeed="16.33" duration="25.00" routeLength="286.19" waitingTime="0.00" waitingCount="0" stopTime="0.00" timeLoss="5.92" rerouteNo="1" devices="vehroute_111571_401_0 tripinfo_111571_401_0 routing_111571_401_0" vType="pkw" speedFactor="1.18" vaporized=""/>
    <tripinfo id="166162_424_0" depart="25233.00" departLane="22959550#0_0" departPos="4.40" departSpeed="0.00" departDelay="0.00" arrival="25310.00" arrivalLane="28675510#7_0" arrivalPos="257.94" arrivalSpeed="16.47" duration="77.00" routeLength="903.30" waitingTime="0.00" waitingCount="0" stopTime="0.00" timeLoss="8.69" rerouteNo="1" devices="vehroute_166162_424_0 tripinfo_166162_424_0 routing_166162_424_0" vType="pkw" speedFactor="1.24" vaporized=""/>
    <tripinfo id="150593_418_0" depart="25297.00" departLane="22959552#0_0" departPos="4.40" departSpeed="0.00" departDelay="0.00" arrival="25310.00" arrivalLane="22959552#0_0" arrivalPos="91.39" arrivalSpeed="8.06" duration="13.00" routeLength="86.99" waitingTime="0.00" waitingCount="0" stopTime="0.00" timeLoss="2.67" rerouteNo="1" devices="vehroute_150593_418_0 tripinfo_150593_418_0 routing_150593_418_0" vType="pkw" speedFactor="1.03" vaporized=""/>
    <tripinfo id="163043_422_0" depart="25215.00" departLane="-28675510#11_0" departPos="4.40" departSpeed="0.00" departDelay="3.00" arrival="25313.00" arrivalLane="8716827#0_0" arrivalPos="109.12" arrivalSpeed="8.03" duration="98.00" routeLength="1154.53" waitingTime="0.00" waitingCount="0" stopTime="0.00" timeLoss="7.70" rerouteNo="1" devices="vehroute_163043_422_0 tripinfo_163043_422_0 routing_163043_422_0" vType="pkw" speedFactor="0.99" vaporized=""/>
    <tripinfo id="152887_419_0" depart="25229.00" departLane="-28675510#11_0" departPos="4.40" departSpeed="0.00" departDelay="0.00" arrival="25333.00" arrivalLane="8716827#0_0" arrivalPos="109.12" arrivalSpeed="7.98" duration="104.00" routeLength="1154.53" waitingTime="0.00" waitingCount="0" stopTime="0.00" timeLoss="11.11" rerouteNo="1" devices="vehroute_152887_419_0 tripinfo_152887_419_0 routing_152887_419_0" vType="pkw" speedFactor="0.96" vaporized=""/>
    <tripinfo id="163025_422_0" depart="25248.00" departLane="-28675510#11_0" departPos="4.40" departSpeed="0.00" departDelay="2.00" arrival="25336.00" arrivalLane="8716807#1_0" arrivalPos="110.75" arrivalSpeed="6.96" duration="88.00" routeLength="862.02" waitingTime="0.00" waitingCount="0" stopTime="0.00" timeLoss="8.12" rerouteNo="1" devices="vehroute_163025_422_0 tripinfo_163025_422_0 routing_163025_422_0" vType="pkw" speedFactor="0.92" vaporized=""/>
    <tripinfo id="171184_426_0" depart="25326.00" departLane="133081987#0_0" departPos="4.40" departSpeed="0.00" departDelay="0.00" arrival="25349.00" arrivalLane="23283436_0" arrivalPos="65.76" arrivalSpeed="11.37" duration="23.00" routeLength="154.99" waitingTime="3.00" waitingCount="1" stopTime="0.00" timeLoss="9.49" rerouteNo="0" devices="vehroute_171184_426_0 tripinfo_171184_426_0 routing_171184_426_0" vType="pkw" speedFactor="0.84" vaporized=""/>
    <tripinfo id="174787_427_0" depart="25287.00" departLane="22959550#3_0" departPos="4.40" departSpeed="0.00" departDelay="0.00" arrival="25351.00" arrivalLane="28675510#7_0" arrivalPos="257.94" arrivalSpeed="16.07" duration="64.00" routeLength="757.45" waitingTime="0.00" waitingCount="0" stopTime="0.00" timeLoss="7.28" rerouteNo="1" devices="vehroute_174787_427_0 tripinfo_174787_427_0 routing_174787_427_0" vType="pkw" speedFactor="1.19" vaporized=""/>
    <tripinfo id="142950_415_0" depart="25274.00" departLane="-28675510#11_0" departPos="4.40" departSpeed="0.00" departDelay="0.00" arrival="25358.00" arrivalLane="155723703#0_0" arrivalPos="92.60" arrivalSpeed="14.30" duration="84.00" routeLength="1137.50" waitingTime="0.00" waitingCount="0" stopTime="0.00" timeLoss="6.37" rerouteNo="1" devices="vehroute_142950_415_0 tripinfo_142950_415_0 routing_142950_415_0" vType="pkw" speedFactor="1.07" vaporized=""/>
    <tripinfo id="144017_416_0" depart="25348.00" departLane="-353069169#0_0" departPos="4.40" departSpeed="0.00" departDelay="0.00" arrival="25366.00" arrivalLane="323416262_0" arrivalPos="87.54" arrivalSpeed="14.64" duration="18.00" routeLength="175.35" waitingTime="0.00" waitingCount="0" stopTime="0.00" timeLoss="6.46" rerouteNo="0" devices="vehroute_144017_416_0 tripinfo_144017_416_0 routing_144017_416_0" vType="pkw" speedFactor="1.11" vaporized=""/>
    <tripinfo id="146391_416_0" depart="25314.00" departLane="-28675510#0_0" departPos="4.40" departSpeed="0.00" departDelay="1.00" arrival="25377.00" arrivalLane="28675510#7_0" arrivalPos="257.94" arrivalSpeed="13.40" duration="63.00" routeLength="752.27" waitingTime="0.00" waitingCount="0" stopTime="0.00" timeLoss="7.34" rerouteNo="1" devices="vehroute_146391_416_0 tripinfo_146391_416_0 routing_146391_416_0" vType="pkw" speedFactor="0.98" vaporized=""/>
    <tripinfo id="108769_400_0" depart="25356.00" departLane="-186623965#18_0" departPos="4.40" departSpeed="0.00" departDelay="0.00" arrival="25389.00" arrivalLane="-22917421#4_0" arrivalPos="96.26" arrivalSpeed="6.57" duration="33.00" routeLength="263.02" waitingTime="0.00" waitingCount="0" stopTime="0.00" timeLoss="5.15" rerouteNo="0" devices="vehroute_108769_400_0 tripinfo_108769_400_0 routing_108769_400_0" vType="pkw" speedFactor="0.89" vaporized=""/>
    <tripinfo id="96268_394_0" depart="25369.00" departLane="-186623965#18_0" departPos="4.40" departSpeed="0.00" departDelay="0.00" arrival="25398.00" arrivalLane="-22917421#4_0" arrivalPos="96.26" arrivalSpeed="7.17" duration="29.00" routeLength="263.02" waitingTime="0.00" waitingCount="0" stopTime="0.00" timeLoss="4.70" rerouteNo="0" devices="vehroute_96268_394_0 tripinfo_96268_394_0 routing_96268_394_0" vType="pkw" speedFactor="1.01" vaporized=""/>
    <tripinfo id="164277_422_0" depart="25343.00" departLane="23285888#0_0" departPos="4.40" departSpeed="0.00" departDelay="0.00" arrival="25414.00" arrivalLane="297047309#0_0" arrivalPos="91.17" arrivalSpeed="11.28" duration="71.00" routeLength="518.80" waitingTime="0.00" waitingCount="0" stopTime="0.00" timeLoss="7.53" rerouteNo="1" devices="vehroute_164277_422_0 tripinfo_164277_422_0 routing_164277_422_0" vType="pkw" speedFactor="0.85" vaporized=""/>
    <tripinfo id="83049_390_0" depart="25408.00" departLane="-4936412_0" departPos="4.40" departSpeed="0.00" departDelay="0.00" arrival="25429.00" arrivalLane="8716827#0_0" arrivalPos="109.12" arrivalSpeed="7.83" duration="21.00" routeLength="148.59" waitingTime="0.00" waitingCount="0" stopTime="0.00" timeLoss="4.11" rerouteNo="0" devices="vehroute_83049_390_0 tripinfo_83049_390_0 routing_83049_390_0" vType="pkw" speedFactor="1.00" vaporized=""/>
    <tripinfo id="67978_381_0" depart="25412.00" departLane="-4936412_0" departPos="4.40" departSpeed="0.00" departDelay="0.00" arrival="25434.00" arrivalLane="8716827#0_0" arrivalPos="109.12" arrivalSpeed="7.30" duration="22.00" routeLength="148.59" waitingTime="0.00" waitingCount="0" stopTime="0.00" timeLoss="4.45" rerouteNo="0" devices="vehroute_67978_381_0 tripinfo_67978_381_0 routing_67978_381_0" vType="pkw" speedFactor="0.93" vaporized=""/>
    <tripinfo id="146152_416_0" depart="25210.00" departLane="25166682#0_0" departPos="4.40" departSpeed="0.00" departDelay="0.00" arrival="25436.00" arrivalLane="28675510#7_0" arrivalPos="257.94" arrivalSpeed="13.07" duration="226.00" routeLength="1219.50" waitingTime="98.00" waitingCount="1" stopTime="0.00" timeLoss="117.54" rerouteNo="1" devices="vehroute_146152_416_0 tripinfo_146152_416_0 routing_146152_416_0" vType="pkw" speedFactor="1.00" vaporized=""/>
    <tripinfo id="138070_412_0" depart="25229.00" departLane="22917421#3_0" departPos="4.40" departSpeed="0.00" departDelay="0.00" arrival="25436.00" arrivalLane="186623965#17_0" arrivalPos="143.63" arrivalSpeed="11.03" duration="207.00" routeLength="257.42" waitingTime="172.00" waitingCount="1" stopTime="0.00" timeLoss="178.76" rerouteNo="0" devices="vehroute_138070_412_0 tripinfo_138070_412_0 routing_138070_412_0" vType="pkw" speedFactor="0.84" vaporized=""/>
    <tripinfo id="164388_422_0" depart="25405.00" departLane="-186623965#18_0" departPos="4.40" departSpeed="0.00" departDelay="0.00" arrival="25443.00" arrivalLane="-22917421#4_0" arrivalPos="96.26" arrivalSpeed="6.43" duration="38.00" routeLength="263.02" waitingTime="0.00" waitingCount="0" stopTime="0.00" timeLoss="6.84" rerouteNo="0" devices="vehroute_164388_422_0 tripinfo_164388_422_0 routing_164388_422_0" vType="pkw" speedFactor="0.79" vaporized=""/>
    <tripinfo id="118988_405_0" depart="25417.00" departLane="-186623965#18_0" departPos="4.40" departSpeed="0.00" departDelay="2.00" arrival="25446.00" arrivalLane="-22917421#4_0" arrivalPos="96.26" arrivalSpeed="8.09" duration="29.00" routeLength="263.02" waitingTime="0.00" waitingCount="0" stopTime="0.00" timeLoss="6.66" rerouteNo="0" devices="vehroute_118988_405_0 tripinfo_118988_405_0 routing_118988_405_0" vType="pkw" speedFactor="1.10" vaporized=""/>
    <tripinfo id="154646_420_0" depart="25419.00" departLane="25166682#0_0" departPos="4.40" departSpeed="0.00" departDelay="0.00" arrival="25446.00" arrivalLane="323450710#0_0" arrivalPos="95.59" arrivalSpeed="12.65" duration="27.00" routeLength="289.69" waitingTime="0.00" waitingCount="0" stopTime="0.00" timeLoss="5.57" rerouteNo="1" devices="vehroute_154646_420_0 tripinfo_154646_420_0 routing_154646_420_0" vType="pkw" speedFactor="0.98" vaporized=""/>
    <tripinfo id="148419_417_0" depart="25363.00" departLane="133081987#3_0" departPos="4.40" departSpeed="0.00" departDelay="0.00" arrival="25459.00" arrivalLane="297047309#0_0" arrivalPos="91.17" arrivalSpeed="11.12" duration="96.00" routeLength="785.73" waitingTime="0.00" waitingCount="0" stopTime="0.00" timeLoss="10.51" rerouteNo="1" devices="vehroute_148419_417_0 tripinfo_148419_417_0 routing_148419_417_0" vType="pkw" speedFactor="0.88" vaporized=""/>
    <tripinfo id="122677_406_0" depart="25441.00" departLane="-4936412_0" departPos="4.40" departSpeed="0.00" departDelay="0.00" arrival="25461.00" arrivalLane="8716827#0_0" arrivalPos="109.12" arrivalSpeed="7.62" duration="20.00" routeLength="148.59" waitingTime="0.00" waitingCount="0" stopTime="0.00" timeLoss="4.28" rerouteNo="0" devices="vehroute_122677_406_0 tripinfo_122677_406_0 routing_122677_406_0" vType="pkw" speedFactor="1.07" vaporized=""/>
    <tripinfo id="175131_428_0" depart="25328.00" departLane="23840713#2_0" departPos="4.40" departSpeed="0.00" departDelay="0.00" arrival="25462.00" arrivalLane="42925825#0_0" arrivalPos="254.17" arrivalSpeed="11.44" duration="134.00" routeLength="1254.72" waitingTime="0.00" waitingCount="0" stopTime="0.00" timeLoss="11.21" rerouteNo="1" devices="vehroute_175131_428_0 tripinfo_175131_428_0 routing_175131_428_0" vType="pkw" speedFactor="0.88" vaporized=""/>
    <tripinfo id="145712_416_0" depart="25405.00" departLane="-28675510#0_0" departPos="4.40" departSpeed="0.00" departDelay="0.00" arrival="25470.00" arrivalLane="28675510#7_0" arrivalPos="257.94" arrivalSpeed="13.08" duration="65.00" routeLength="752.27" waitingTime="0.00" waitingCount="0" stopTime="0.00" timeLoss="7.97" rerouteNo="1" devices="vehroute_145712_416_0 tripinfo_145712_416_0 routing_145712_416_0" vType="pkw" speedFactor="0.96" vaporized=""/>
    <tripinfo id="166238_424_0" depart="25449.00" departLane="42925825#0_0" departPos="4.40" departSpeed="0.00" departDelay="0.00" arrival="25473.00" arrivalLane="42925825#0_0" arrivalPos="254.17" arrivalSpeed="12.41" duration="24.00" routeLength="249.77" waitingTime="0.00" waitingCount="0" stopTime="0.00" timeLoss="4.06" rerouteNo="1" devices="vehroute_166238_424_0 tripinfo_166238_424_0 routing_166238_424_0" vType="pkw" speedFactor="0.94" vaporized=""/>
    <tripinfo id="171631_426_0" depart="25415.00" departLane="23283470#0_0" departPos="4.40" departSpeed="0.00" departDelay="0.00" arrival="25480.00" arrivalLane="23283579#1_0" arrivalPos="22.22" arrivalSpeed="11.99" duration="65.00" routeLength="531.05" waitingTime="0.00" waitingCount="0" stopTime="0.00" timeLoss="8.38" rerouteNo="1" devices="vehroute_171631_426_0 tripinfo_171631_426_0 routing_171631_426_0" vType="pkw" speedFactor="0.96" vaporized=""/>
    <tripinfo id="139487_413_0" depart="25456.00" departLane="-4936412_0" departPos="4.40" departSpeed="0.00" departDelay="0.00" arrival="25481.00" arrivalLane="8716827#0_0" arrivalPos="109.12" arrivalSpeed="6.04" duration="25.00" routeLength="148.59" waitingTime="0.00" waitingCount="0" stopTime="0.00" timeLoss="4.83" rerouteNo="0" devices="vehroute_139487_413_0 tripinfo_139487_413_0 routing_139487_413_0" vType="pkw" speedFactor="0.84" vaporized=""/>
    <tripinfo id="148727_417_0" depart="25479.00" departLane="23283579#1_0" departPos="4.40" departSpeed="0.00" departDelay="0.00" arrival="25484.00" arrivalLane="23283579#1_0" arrivalPos="22.22" arrivalSpeed="9.18" duration="5.00" routeLength="17.82" waitingTime="0.00" waitingCount="0" stopTime="0.00" timeLoss="3.25" rerouteNo="1" devices="vehroute_148727_417_0 tripinfo_148727_417_0 routing_148727_417_0" vType="pkw" speedFactor="1.04" vaporized=""/>
    <tripinfo id="146495_416_0" depart="25369.00" departLane="23840712#0_0" departPos="4.40" departSpeed="0.00" departDelay="0.00" arrival="25487.00" arrivalLane="-186623965#14_0" arrivalPos="159.69" arrivalSpeed="13.20" duration="118.00" routeLength="1176.49" waitingTime="0.00" waitingCount="0" stopTime="0.00" timeLoss="10.18" rerouteNo="1" devices="vehroute_146495_416_0 tripinfo_146495_416_0 routing_146495_416_0" vType="pkw" speedFactor="0.96" vaporized=""/>
    <tripinfo id="136088_411_0" depart="25475.00" departLane="-4936412_0" departPos="4.40" departSpeed="0.00" departDelay="0.00" arrival="25496.00" arrivalLane="8716827#0_0" arrivalPos="109.12" arrivalSpeed="7.17" duration="21.00" routeLength="148.59" waitingTime="0.00" waitingCount="0" stopTime="0.00" timeLoss="4.51" rerouteNo="0" devices="vehroute_136088_411_0 tripinfo_136088_411_0 routing_136088_411_0" vType="pkw" speedFactor="1.00" vaporized=""/>
    <tripinfo id="149528_417_0" depart="25414.00" departLane="-23840712#0_0" departPos="4.40" departSpeed="0.00" departDelay="0.00" arrival="25497.00" arrivalLane="28675510#7_0" arrivalPos="257.94" arrivalSpeed="16.27" duration="83.00" routeLength="919.80" waitingTime="0.00" waitingCount="0" stopTime="0.00" timeLoss="9.05" rerouteNo="1" devices="vehroute_149528_417_0 tripinfo_149528_417_0 routing_149528_417_0" vType="pkw" speedFactor="1.18" vaporized=""/>
    <tripinfo id="153496_420_0" depart="25232.00" departLane="22917421#3_0" departPos="4.40" departSpeed="0.00" departDelay="0.00" arrival="25498.00" arrivalLane="186623965#17_0" arrivalPos="143.63" arrivalSpeed="13.50" duration="266.00" routeLength="257.42" waitingTime="228.00" waitingCount="2" stopTime="0.00" timeLoss="241.76" rerouteNo="0" devices="vehroute_153496_420_0 tripinfo_153496_420_0 routing_153496_420_0" vType="pkw" speedFactor="0.99" vaporized=""/>
    <tripinfo id="155353_420_0" depart="25235.00" departLane="22917421#3_0" departPos="4.40" departSpeed="0.00" departDelay="1.00" arrival="25501.00" arrivalLane="186623965#17_0" arrivalPos="143.63" arrivalSpeed="11.43" duration="266.00" routeLength="257.42" waitingTime="228.00" waitingCount="2" stopTime="0.00" timeLoss="239.67" rerouteNo="0" devices="vehroute_155353_420_0 tripinfo_155353_420_0 routing_155353_420_0" vType="pkw" speedFactor="0.89" vaporized=""/>
    <tripinfo id="110175_401_0" depart="25491.00" departLane="-4936412_0" departPos="4.40" departSpeed="0.00" departDelay="1.00" arrival="25506.00" arrivalLane="155723703#0_0" arrivalPos="92.60" arrivalSpeed="14.30" duration="15.00" routeLength="132.82" waitingTime="0.00" waitingCount="0" stopTime="0.00" timeLoss="5.64" rerouteNo="0" devices="vehroute_110175_401_0 tripinfo_110175_401_0 routing_110175_401_0" vType="pkw" speedFactor="1.12" vaporized=""/>
    <tripinfo id="169793_426_0" depart="25405.00" departLane="290365598#0_0" departPos="4.40" departSpeed="0.00" departDelay="0.00" arrival="25508.00" arrivalLane="-186623965#14_0" arrivalPos="159.69" arrivalSpeed="12.77" duration="103.00" routeLength="1074.79" waitingTime="0.00" waitingCount="0" stopTime="0.00" timeLoss="10.76" rerouteNo="1" devices="vehroute_169793_426_0 tripinfo_169793_426_0 routing_169793_426_0" vType="pkw" speedFactor="1.00" vaporized=""/>
    <tripinfo id="115107_403_0" depart="25488.00" departLane="-4936412_0" departPos="4.40" departSpeed="0.00" departDelay="0.00" arrival="25508.00" arrivalLane="8716827#0_0" arrivalPos="109.12" arrivalSpeed="7.91" duration="20.00" routeLength="148.59" waitingTime="0.00" waitingCount="0" stopTime="0.00" timeLoss="4.10" rerouteNo="0" devices="vehroute_115107_403_0 tripinfo_115107_403_0 routing_115107_403_0" vType="pkw" speedFactor="1.06" vaporized=""/>
    <tripinfo id="137017_412_0" depart="25466.00" departLane="-186623965#18_0" departPos="4.40" departSpeed="0.00" departDelay="0.00" arrival="25511.00" arrivalLane="-22917421#4_0" arrivalPos="96.26" arrivalSpeed="7.08" duration="45.00" routeLength="263.02" waitingTime="9.00" waitingCount="1" stopTime="0.00" timeLoss="18.04" rerouteNo="0" devices="vehroute_137017_412_0 tripinfo_137017_412_0 routing_137017_412_0" vType="pkw" speedFactor="0.90" vaporized=""/>
    <tripinfo id="152801_419_0" depart="25299.00" departLane="-297047307_0" departPos="4.40" departSpeed="0.00" departDelay="0.00" arrival="25512.00" arrivalLane="297047309#0_0" arrivalPos="91.17" arrivalSpeed="10.76" duration="213.00" routeLength="439.92" waitingTime="165.00" waitingCount="1" stopTime="0.00" timeLoss="174.79" rerouteNo="1" devices="vehroute_152801_419_0 tripinfo_152801_419_0 routing_152801_419_0" vType="pkw" speedFactor="0.84" vaporized=""/>
    <tripinfo id="82749_390_0" depart="25496.00" departLane="-4936412_0" departPos="4.40" departSpeed="0.00" departDelay="0.00" arrival="25512.00" arrivalLane="155723703#0_0" arrivalPos="92.60" arrivalSpeed="11.75" duration="16.00" routeLength="132.82" waitingTime="0.00" waitingCount="0" stopTime="0.00" timeLoss="4.84" rerouteNo="0" devices="vehroute_82749_390_0 tripinfo_82749_390_0 routing_82749_390_0" vType="pkw" speedFactor="0.89" vaporized=""/>
    <tripinfo id="167565_425_0" depart="25382.00" departLane="-25166682#0_0" departPos="4.40" departSpeed="0.00" departDelay="0.00" arrival="25513.00" arrivalLane="23283579#1_0" arrivalPos="22.22" arrivalSpeed="11.78" duration="131.00" routeLength="874.92" waitingTime="17.00" waitingCount="2" stopTime="0.00" timeLoss="41.28" rerouteNo="1" devices="vehroute_167565_425_0 tripinfo_167565_425_0 routing_167565_425_0" vType="pkw" speedFactor="0.92" vaporized=""/>
    <tripinfo id="158885_421_0" depart="25220.00" departLane="22917421#3_0" departPos="4.40" departSpeed="0.00" departDelay="0.00" arrival="25514.00" arrivalLane="28675510#7_0" arrivalPos="257.94" arrivalSpeed="15.21" duration="294.00" routeLength="937.03" waitingTime="196.00" waitingCount="1" stopTime="0.00" timeLoss="208.72" rerouteNo="1" devices="vehroute_158885_421_0 tripinfo_158885_421_0 routing_158885_421_0" vType="pkw" speedFactor="1.17" vaporized=""/>
    <tripinfo id="156503_420_0" depart="25472.00" departLane="297047308_0" departPos="4.40" departSpeed="0.00" departDelay="0.00" arrival="25514.00" arrivalLane="297047309#0_0" arrivalPos="91.17" arrivalSpeed="13.67" duration="42.00" routeLength="211.14" waitingTime="15.00" waitingCount="1" stopTime="0.00" timeLoss="26.21" rerouteNo="1" devices="vehroute_156503_420_0 tripinfo_156503_420_0 routing_156503_420_0" vType="pkw" speedFactor="1.02" vaporized=""/>
    <tripinfo id="137312_412_0" depart="25200.00" departLane="-23283579#1_0" departPos="4.40" departSpeed="0.00" departDelay="0.00" arrival="25520.00" arrivalLane="23283436_0" arrivalPos="65.76" arrivalSpeed="12.98" duration="320.00" routeLength="404.67" waitingTime="279.00" waitingCount="1" stopTime="0.00" timeLoss="289.58" rerouteNo="1" devices="vehroute_137312_412_0 tripinfo_137312_412_0 routing_137312_412_0" vType="pkw" speedFactor="0.97" vaporized=""/>
    <tripinfo id="104777_398_0" depart="25500.00" departLane="-4936412_0" departPos="4.40" departSpeed="0.00" departDelay="0.00" arrival="25523.00" arrivalLane="8716827#0_0" arrivalPos="109.12" arrivalSpeed="6.39" duration="23.00" routeLength="148.59" waitingTime="0.00" waitingCount="0" stopTime="0.00" timeLoss="4.03" rerouteNo="0" devices="vehroute_104777_398_0 tripinfo_104777_398_0 routing_104777_398_0" vType="pkw" speedFactor="0.88" vaporized=""/>
    <tripinfo id="161682_421_0" depart="25419.00" departLane="-23840712#0_0" departPos="4.40" departSpeed="0.00" departDelay="0.00" arrival="25527.00" arrivalLane="28675510#7_0" arrivalPos="257.94" arrivalSpeed="13.86" duration="108.00" routeLength="919.80" waitingTime="7.00" waitingCount="1" stopTime="0.00" timeLoss="21.33" rerouteNo="1" devices="vehroute_161682_421_0 tripinfo_161682_421_0 routing_161682_421_0" vType="pkw" speedFactor="1.01" vaporized=""/>
    <tripinfo id="177623_429_0" depart="25497.00" departLane="23647118_0" departPos="4.40" departSpeed="0.00" departDelay="0.00" arrival="25543.00" arrivalLane="297047309#0_0" arrivalPos="91.17" arrivalSpeed="13.96" duration="46.00" routeLength="408.32" waitingTime="0.00" waitingCount="0" stopTime="0.00" timeLoss="6.12" rerouteNo="1" devices="vehroute_177623_429_0 tripinfo_177623_429_0 routing_177623_429_0" vType="pkw" speedFactor="1.02" vaporized=""/>
    <tripinfo id="156485_420_0" depart="25205.00" departLane="22959552#0_0" departPos="4.40" departSpeed="0.00" departDelay="0.00" arrival="25544.00" arrivalLane="28675510#7_0" arrivalPos="257.94" arrivalSpeed="13.25" duration="339.00" routeLength="1112.54" waitingTime="224.00" waitingCount="1" stopTime="0.00" timeLoss="236.75" rerouteNo="1" devices="vehroute_156485_420_0 tripinfo_156485_420_0 routing_156485_420_0" vType="pkw" speedFactor="1.01" vaporized=""/>
    <tripinfo id="162890_422_0" depart="25264.00" departLane="8716807#1_0" departPos="4.40" departSpeed="0.00" departDelay="0.00" arrival="25545.00" arrivalLane="28675510#7_0" arrivalPos="257.94" arrivalSpeed="13.88" duration="281.00" routeLength="973.61" waitingTime="184.00" waitingCount="1" stopTime="0.00" timeLoss="196.87" rerouteNo="1" devices="vehroute_162890_422_0 tripinfo_162890_422_0 routing_162890_422_0" vType="pkw" speedFactor="1.03" vaporized=""/>
    <tripinfo id="138793_413_0" depart="25264.00" departLane="-297047309#0_0" departPos="4.40" departSpeed="0.00" departDelay="0.00" arrival="25551.00" arrivalLane="28675510#7_0" arrivalPos="257.94" arrivalSpeed="12.21" duration="287.00" routeLength="1192.12" waitingTime="160.00" waitingCount="1" stopTime="0.00" timeLoss="174.69" rerouteNo="1" devices="vehroute_138793_413_0 tripinfo_138793_413_0 routing_138793_413_0" vType="pkw" speedFactor="0.93" vaporized=""/>
    <tripinfo id="171497_426_0" depart="25456.00" departLane="23647126_0" departPos="4.40" departSpeed="0.00" departDelay="0.00" arrival="25559.00" arrivalLane="23283579#1_0" arrivalPos="22.22" arrivalSpeed="12.08" duration="103.00" routeLength="761.84" waitingTime="0.00" waitingCount="0" stopTime="0.00" timeLoss="12.55" rerouteNo="1" devices="vehroute_171497_426_0 tripinfo_171497_426_0 routing_171497_426_0" vType="pkw" speedFactor="0.91" vaporized=""/>