<?xml version="1.0" encoding="UTF-8"?>

<!-- generated on 2025-05-20 17:34:35 by Eclipse SUMO sumo Version 1.20.0
<configuration xmlns:xsi="http://www.w3.org/2001/XMLSchema-instance" xsi:noNamespaceSchemaLocation="http://sumo.dlr.de/xsd/sumoConfiguration.xsd">

    <input>
        <net-file value="C:\Users\skang\Desktop\최석환\강의\무인항공딥러닝개론\RESCO-main\resco_benchmark\environments/cologne8/cologne8.net.xml"/>
        <route-files value="C:\Users\skang\Desktop\최석환\강의\무인항공딥러닝개론\RESCO-main\resco_benchmark\environments/cologne8/cologne8.rou.xml"/>
    </input>

    <output>
        <tripinfo-output value="C:\Users\skang\Desktop\최석환\강의\무인항공딥러닝개론\results\MPLight-tr0-cologne8-0-mplight-pressure\tripinfo_71.xml"/>
        <tripinfo-output.write-unfinished value="true"/>
        <vehroute-output value="C:\Users\skang\Desktop\최석환\강의\무인항공딥러닝개론\results\MPLight-tr0-cologne8-0-mplight-pressure\route_71.xml"/>
        <vehroute-output.sorted value="True"/>
        <vehroute-output.write-unfinished value="True"/>
        <collision-output value="C:\Users\skang\Desktop\최석환\강의\무인항공딥러닝개론\results\MPLight-tr0-cologne8-0-mplight-pressure\coll_71.xml"/>
        <statistic-output value="C:\Users\skang\Desktop\최석환\강의\무인항공딥러닝개론\results\MPLight-tr0-cologne8-0-mplight-pressure\stats_71.xml"/>
    </output>

    <time>
        <begin value="25200"/>
        <end value="28800"/>
    </time>

    <processing>
        <time-to-teleport value="-1"/>
    </processing>

    <report>
        <no-warnings value="True"/>
        <no-step-log value="True"/>
    </report>

    <traci_server>
        <remote-port value="57405"/>
    </traci_server>

    <random_number>
        <random value="true"/>
    </random_number>

</configuration>
-->

<tripinfos xmlns:xsi="http://www.w3.org/2001/XMLSchema-instance" xsi:noNamespaceSchemaLocation="http://sumo.dlr.de/xsd/tripinfo_file.xsd">
    <tripinfo id="142890_415_0" depart="25218.00" departLane="-23283579#1_0" departPos="4.40" departSpeed="0.00" departDelay="0.00" arrival="25226.00" arrivalLane="23283579#1_0" arrivalPos="22.22" arrivalSpeed="9.97" duration="8.00" routeLength="44.72" waitingTime="0.00" waitingCount="0" stopTime="0.00" timeLoss="3.17" rerouteNo="0" devices="vehroute_142890_415_0 tripinfo_142890_415_0 routing_142890_415_0" vType="pkw" speedFactor="0.81" vaporized=""/>
    <tripinfo id="137959_412_0" depart="25209.00" departLane="-186623965#18_0" departPos="4.40" departSpeed="0.00" departDelay="0.00" arrival="25240.00" arrivalLane="-22917421#4_0" arrivalPos="96.26" arrivalSpeed="6.92" duration="31.00" routeLength="263.02" waitingTime="0.00" waitingCount="0" stopTime="0.00" timeLoss="6.13" rerouteNo="0" devices="vehroute_137959_412_0 tripinfo_137959_412_0 routing_137959_412_0" vType="pkw" speedFactor="0.97" vaporized=""/>
    <tripinfo id="155570_420_0" depart="25200.00" departLane="-28675510#11_0" departPos="4.40" departSpeed="0.00" departDelay="0.00" arrival="25251.00" arrivalLane="28675510#7_0" arrivalPos="257.94" arrivalSpeed="10.93" duration="51.00" routeLength="516.12" waitingTime="0.00" waitingCount="0" stopTime="0.00" timeLoss="6.77" rerouteNo="0" devices="vehroute_155570_420_0 tripinfo_155570_420_0 routing_155570_420_0" vType="pkw" speedFactor="0.86" vaporized=""/>
    <tripinfo id="134603_411_0" depart="25206.00" departLane="-28675510#11_0" departPos="4.40" departSpeed="0.00" departDelay="0.00" arrival="25252.00" arrivalLane="28675510#7_0" arrivalPos="257.94" arrivalSpeed="13.79" duration="46.00" routeLength="516.12" waitingTime="0.00" waitingCount="0" stopTime="0.00" timeLoss="8.78" rerouteNo="0" devices="vehroute_134603_411_0 tripinfo_134603_411_0 routing_134603_411_0" vType="pkw" speedFactor="1.01" vaporized=""/>
    <tripinfo id="119181_405_0" depart="25226.00" departLane="186623965#9_0" departPos="4.40" departSpeed="0.00" departDelay="0.00" arrival="25258.00" arrivalLane="42925825#0_0" arrivalPos="254.17" arrivalSpeed="14.50" duration="32.00" routeLength="418.48" waitingTime="0.00" waitingCount="0" stopTime="0.00" timeLoss="4.82" rerouteNo="0" devices="vehroute_119181_405_0 tripinfo_119181_405_0 routing_119181_405_0" vType="pkw" speedFactor="1.11" vaporized=""/>
    <tripinfo id="138070_412_0" depart="25229.00" departLane="22917421#3_0" departPos="4.40" departSpeed="0.00" departDelay="0.00" arrival="25272.00" arrivalLane="186623965#17_0" arrivalPos="143.63" arrivalSpeed="14.23" duration="43.00" routeLength="257.42" waitingTime="12.00" waitingCount="1" stopTime="0.00" timeLoss="20.79" rerouteNo="0" devices="vehroute_138070_412_0 tripinfo_138070_412_0 routing_138070_412_0" vType="pkw" speedFactor="1.07" vaporized=""/>
    <tripinfo id="133416_410_0" depart="25228.00" departLane="186623965#9_0" departPos="4.40" departSpeed="0.00" departDelay="0.00" arrival="25273.00" arrivalLane="42925825#0_0" arrivalPos="254.17" arrivalSpeed="15.27" duration="45.00" routeLength="418.48" waitingTime="6.00" waitingCount="1" stopTime="0.00" timeLoss="19.12" rerouteNo="0" devices="vehroute_133416_410_0 tripinfo_133416_410_0 routing_133416_410_0" vType="pkw" speedFactor="1.17" vaporized=""/>
    <tripinfo id="153496_420_0" depart="25232.00" departLane="22917421#3_0" departPos="4.40" departSpeed="0.00" departDelay="0.00" arrival="25274.00" arrivalLane="186623965#17_0" arrivalPos="143.63" arrivalSpeed="14.48" duration="42.00" routeLength="257.42" waitingTime="10.00" waitingCount="1" stopTime="0.00" timeLoss="19.92" rerouteNo="0" devices="vehroute_153496_420_0 tripinfo_153496_420_0 routing_153496_420_0" vType="pkw" speedFactor="1.10" vaporized=""/>
    <tripinfo id="155353_420_0" depart="25234.00" departLane="22917421#3_0" departPos="4.40" departSpeed="0.00" departDelay="0.00" arrival="25275.00" arrivalLane="186623965#17_0" arrivalPos="143.63" arrivalSpeed="14.32" duration="41.00" routeLength="257.42" waitingTime="11.00" waitingCount="1" stopTime="0.00" timeLoss="20.04" rerouteNo="0" devices="vehroute_155353_420_0 tripinfo_155353_420_0 routing_155353_420_0" vType="pkw" speedFactor="1.12" vaporized=""/>
    <tripinfo id="140143_414_0" depart="25211.00" departLane="-28675510#11_0" departPos="4.40" departSpeed="0.00" departDelay="1.00" arrival="25280.00" arrivalLane="28675510#7_0" arrivalPos="257.94" arrivalSpeed="11.68" duration="69.00" routeLength="516.12" waitingTime="17.00" waitingCount="2" stopTime="0.00" timeLoss="27.15" rerouteNo="0" devices="vehroute_140143_414_0 tripinfo_140143_414_0 routing_140143_414_0" vType="pkw" speedFactor="0.91" vaporized=""/>
    <tripinfo id="118788_405_0" depart="25247.00" departLane="22917421#3_0" departPos="4.40" departSpeed="0.00" departDelay="0.00" arrival="25283.00" arrivalLane="186623965#17_0" arrivalPos="143.63" arrivalSpeed="14.61" duration="36.00" routeLength="257.42" waitingTime="0.00" waitingCount="0" stopTime="0.00" timeLoss="13.47" rerouteNo="0" devices="vehroute_118788_405_0 tripinfo_118788_405_0 routing_118788_405_0" vType="pkw" speedFactor="1.07" vaporized=""/>
    <tripinfo id="161942_421_0" depart="25233.00" departLane="-42925825#2_0" departPos="4.40" departSpeed="0.00" departDelay="0.00" arrival="25285.00" arrivalLane="42925825#0_0" arrivalPos="254.17" arrivalSpeed="13.74" duration="52.00" routeLength="508.64" waitingTime="3.00" waitingCount="1" stopTime="0.00" timeLoss="14.56" rerouteNo="0" devices="vehroute_161942_421_0 tripinfo_161942_421_0 routing_161942_421_0" vType="pkw" speedFactor="0.99" vaporized=""/>
    <tripinfo id="144617_416_0" depart="25256.00" departLane="22917421#3_0" departPos="4.40" departSpeed="0.00" departDelay="0.00" arrival="25295.00" arrivalLane="186623965#17_0" arrivalPos="143.63" arrivalSpeed="11.97" duration="39.00" routeLength="257.42" waitingTime="3.00" waitingCount="1" stopTime="0.00" timeLoss="12.12" rerouteNo="0" devices="vehroute_144617_416_0 tripinfo_144617_416_0 routing_144617_416_0" vType="pkw" speedFactor="0.87" vaporized=""/>
    <tripinfo id="111571_401_0" depart="25267.00" departLane="-353069169#0_0" departPos="4.40" departSpeed="0.00" departDelay="0.00" arrival="25295.00" arrivalLane="24487264_0" arrivalPos="166.35" arrivalSpeed="15.09" duration="28.00" routeLength="286.19" waitingTime="0.00" waitingCount="0" stopTime="0.00" timeLoss="8.50" rerouteNo="1" devices="vehroute_111571_401_0 tripinfo_111571_401_0 routing_111571_401_0" vType="pkw" speedFactor="1.13" vaporized=""/>
    <tripinfo id="137312_412_0" depart="25200.00" departLane="-23283579#1_0" departPos="4.40" departSpeed="0.00" departDelay="0.00" arrival="25297.00" arrivalLane="23283436_0" arrivalPos="65.76" arrivalSpeed="15.14" duration="97.00" routeLength="404.67" waitingTime="58.00" waitingCount="1" stopTime="0.00" timeLoss="70.57" rerouteNo="1" devices="vehroute_137312_412_0 tripinfo_137312_412_0 routing_137312_412_0" vType="pkw" speedFactor="1.12" vaporized=""/>
    <tripinfo id="162497_421_0" depart="25273.00" departLane="22917421#3_0" departPos="4.40" departSpeed="0.00" departDelay="0.00" arrival="25303.00" arrivalLane="186623965#17_0" arrivalPos="143.63" arrivalSpeed="15.79" duration="30.00" routeLength="257.42" waitingTime="2.00" waitingCount="1" stopTime="0.00" timeLoss="9.61" rerouteNo="0" devices="vehroute_162497_421_0 tripinfo_162497_421_0 routing_162497_421_0" vType="pkw" speedFactor="1.17" vaporized=""/>
    <tripinfo id="150593_418_0" depart="25297.00" departLane="22959552#0_0" departPos="4.40" departSpeed="0.00" departDelay="0.00" arrival="25311.00" arrivalLane="22959552#0_0" arrivalPos="91.39" arrivalSpeed="7.32" duration="14.00" routeLength="86.99" waitingTime="0.00" waitingCount="0" stopTime="0.00" timeLoss="2.14" rerouteNo="1" devices="vehroute_150593_418_0 tripinfo_150593_418_0 routing_150593_418_0" vType="pkw" speedFactor="0.92" vaporized=""/>
    <tripinfo id="156485_420_0" depart="25205.00" departLane="22959552#0_0" departPos="4.40" departSpeed="0.00" departDelay="0.00" arrival="25326.00" arrivalLane="28675510#7_0" arrivalPos="257.94" arrivalSpeed="12.71" duration="121.00" routeLength="1112.54" waitingTime="0.00" waitingCount="0" stopTime="0.00" timeLoss="17.37" rerouteNo="1" devices="vehroute_156485_420_0 tripinfo_156485_420_0 routing_156485_420_0" vType="pkw" speedFactor="0.99" vaporized=""/>
    <tripinfo id="166162_424_0" depart="25233.00" departLane="22959550#0_0" departPos="4.40" departSpeed="0.00" departDelay="0.00" arrival="25328.00" arrivalLane="28675510#7_0" arrivalPos="257.94" arrivalSpeed="14.25" duration="95.00" routeLength="903.30" waitingTime="0.00" waitingCount="0" stopTime="0.00" timeLoss="12.98" rerouteNo="1" devices="vehroute_166162_424_0 tripinfo_166162_424_0 routing_166162_424_0" vType="pkw" speedFactor="1.03" vaporized=""/>
    <tripinfo id="135663_411_0" depart="25218.00" departLane="-28675510#11_0" departPos="4.40" departSpeed="0.00" departDelay="4.00" arrival="25330.00" arrivalLane="28675510#7_0" arrivalPos="257.94" arrivalSpeed="15.05" duration="112.00" routeLength="516.12" waitingTime="57.00" waitingCount="3" stopTime="0.00" timeLoss="77.42" rerouteNo="0" devices="vehroute_135663_411_0 tripinfo_135663_411_0 routing_135663_411_0" vType="pkw" speedFactor="1.08" vaporized=""/>
    <tripinfo id="131237_409_0" depart="25228.00" departLane="-186623965#18_0" departPos="4.40" departSpeed="0.00" departDelay="0.00" arrival="25330.00" arrivalLane="297047309#0_0" arrivalPos="91.17" arrivalSpeed="14.46" duration="102.00" routeLength="1417.37" waitingTime="0.00" waitingCount="0" stopTime="0.00" timeLoss="8.70" rerouteNo="1" devices="vehroute_131237_409_0 tripinfo_131237_409_0 routing_131237_409_0" vType="pkw" speedFactor="1.10" vaporized=""/>
    <tripinfo id="149045_417_0" depart="25220.00" departLane="-28675510#11_0" departPos="4.40" departSpeed="0.00" departDelay="3.00" arrival="25332.00" arrivalLane="28675510#7_0" arrivalPos="257.94" arrivalSpeed="14.78" duration="112.00" routeLength="516.12" waitingTime="54.00" waitingCount="3" stopTime="0.00" timeLoss="78.63" rerouteNo="0" devices="vehroute_149045_417_0 tripinfo_149045_417_0 routing_149045_417_0" vType="pkw" speedFactor="1.14" vaporized=""/>
    <tripinfo id="127809_407_0" depart="25258.00" departLane="-23283579#1_0" departPos="4.40" departSpeed="0.00" departDelay="1.00" arrival="25332.00" arrivalLane="23285888#0_0" arrivalPos="109.58" arrivalSpeed="7.54" duration="74.00" routeLength="410.95" waitingTime="10.00" waitingCount="1" stopTime="0.00" timeLoss="27.77" rerouteNo="1" devices="vehroute_127809_407_0 tripinfo_127809_407_0 routing_127809_407_0" vType="pkw" speedFactor="0.98" vaporized=""/>
    <tripinfo id="171184_426_0" depart="25326.00" departLane="133081987#0_0" departPos="4.40" departSpeed="0.00" departDelay="0.00" arrival="25342.00" arrivalLane="23283436_0" arrivalPos="65.76" arrivalSpeed="14.89" duration="16.00" routeLength="154.99" waitingTime="0.00" waitingCount="0" stopTime="0.00" timeLoss="5.60" rerouteNo="0" devices="vehroute_171184_426_0 tripinfo_171184_426_0 routing_171184_426_0" vType="pkw" speedFactor="1.08" vaporized=""/>
    <tripinfo id="145512_416_0" depart="25308.00" departLane="22917421#3_0" departPos="4.40" departSpeed="0.00" departDelay="0.00" arrival="25343.00" arrivalLane="186623965#17_0" arrivalPos="143.63" arrivalSpeed="13.88" duration="35.00" routeLength="257.42" waitingTime="6.00" waitingCount="1" stopTime="0.00" timeLoss="12.72" rerouteNo="0" devices="vehroute_145512_416_0 tripinfo_145512_416_0 routing_145512_416_0" vType="pkw" speedFactor="1.06" vaporized=""/>
    <tripinfo id="76230_386_0" depart="25204.00" departLane="-23283579#1_0" departPos="4.40" departSpeed="0.00" departDelay="0.00" arrival="25344.00" arrivalLane="297047309#0_0" arrivalPos="91.17" arrivalSpeed="12.64" duration="140.00" routeLength="656.20" waitingTime="56.00" waitingCount="1" stopTime="0.00" timeLoss="72.17" rerouteNo="1" devices="vehroute_76230_386_0 tripinfo_76230_386_0 routing_76230_386_0" vType="pkw" speedFactor="0.98" vaporized=""/>
    <tripinfo id="110248_401_0" depart="25207.00" departLane="-23283579#1_0" departPos="4.40" departSpeed="0.00" departDelay="1.00" arrival="25351.00" arrivalLane="297047309#0_0" arrivalPos="91.17" arrivalSpeed="11.53" duration="144.00" routeLength="656.20" waitingTime="54.00" waitingCount="1" stopTime="0.00" timeLoss="70.45" rerouteNo="1" devices="vehroute_110248_401_0 tripinfo_110248_401_0 routing_110248_401_0" vType="pkw" speedFactor="0.90" vaporized=""/>
    <tripinfo id="158885_421_0" depart="25220.00" departLane="22917421#3_0" departPos="4.40" departSpeed="0.00" departDelay="0.00" arrival="25364.00" arrivalLane="28675510#7_0" arrivalPos="257.94" arrivalSpeed="12.96" duration="144.00" routeLength="937.03" waitingTime="19.00" waitingCount="2" stopTime="0.00" timeLoss="37.91" rerouteNo="1" devices="vehroute_158885_421_0 tripinfo_158885_421_0 routing_158885_421_0" vType="pkw" speedFactor="0.94" vaporized=""/>
    <tripinfo id="158136_421_0" depart="25240.00" departLane="28675510#1_0" departPos="4.40" departSpeed="0.00" departDelay="0.00" arrival="25368.00" arrivalLane="323416262_0" arrivalPos="87.54" arrivalSpeed="13.12" duration="128.00" routeLength="1126.93" waitingTime="0.00" waitingCount="0" stopTime="0.00" timeLoss="18.45" rerouteNo="1" devices="vehroute_158136_421_0 tripinfo_158136_421_0 routing_158136_421_0" vType="pkw" speedFactor="0.96" vaporized=""/>
    <tripinfo id="144017_416_0" depart="25348.00" departLane="-353069169#0_0" departPos="4.40" departSpeed="0.00" departDelay="0.00" arrival="25370.00" arrivalLane="323416262_0" arrivalPos="87.54" arrivalSpeed="13.91" duration="22.00" routeLength="175.35" waitingTime="0.00" waitingCount="0" stopTime="0.00" timeLoss="8.65" rerouteNo="0" devices="vehroute_144017_416_0 tripinfo_144017_416_0 routing_144017_416_0" vType="pkw" speedFactor="1.02" vaporized=""/>
    <tripinfo id="163043_422_0" depart="25215.00" departLane="-28675510#11_0" departPos="4.40" departSpeed="0.00" departDelay="3.00" arrival="25380.00" arrivalLane="8716827#0_0" arrivalPos="109.12" arrivalSpeed="7.34" duration="165.00" routeLength="1154.53" waitingTime="56.00" waitingCount="2" stopTime="0.00" timeLoss="77.80" rerouteNo="1" devices="vehroute_163043_422_0 tripinfo_163043_422_0 routing_163043_422_0" vType="pkw" speedFactor="1.02" vaporized=""/>
    <tripinfo id="166783_424_0" depart="25349.00" departLane="22917421#3_0" departPos="4.40" departSpeed="0.00" departDelay="0.00" arrival="25386.00" arrivalLane="186623965#17_0" arrivalPos="143.63" arrivalSpeed="11.86" duration="37.00" routeLength="257.42" waitingTime="2.00" waitingCount="1" stopTime="0.00" timeLoss="9.43" rerouteNo="0" devices="vehroute_166783_424_0 tripinfo_166783_424_0 routing_166783_424_0" vType="pkw" speedFactor="0.87" vaporized=""/>
    <tripinfo id="129175_408_0" depart="25255.00" departLane="-23283579#1_0" departPos="4.40" departSpeed="0.00" departDelay="0.00" arrival="25394.00" arrivalLane="323450710#0_0" arrivalPos="95.59" arrivalSpeed="14.93" duration="139.00" routeLength="843.12" waitingTime="32.00" waitingCount="2" stopTime="0.00" timeLoss="66.47" rerouteNo="1" devices="vehroute_129175_408_0 tripinfo_129175_408_0 routing_129175_408_0" vType="pkw" speedFactor="1.09" vaporized=""/>
    <tripinfo id="84611_390_0" depart="25261.00" departLane="-23283579#1_0" departPos="4.40" departSpeed="0.00" departDelay="0.00" arrival="25395.00" arrivalLane="-23648008#0_0" arrivalPos="75.90" arrivalSpeed="14.23" duration="134.00" routeLength="782.02" waitingTime="29.00" waitingCount="2" stopTime="0.00" timeLoss="64.00" rerouteNo="1" devices="vehroute_84611_390_0 tripinfo_84611_390_0 routing_84611_390_0" vType="pkw" speedFactor="1.07" vaporized=""/>
    <tripinfo id="164277_422_0" depart="25343.00" departLane="23285888#0_0" departPos="4.40" departSpeed="0.00" departDelay="0.00" arrival="25403.00" arrivalLane="297047309#0_0" arrivalPos="91.17" arrivalSpeed="14.15" duration="60.00" routeLength="518.80" waitingTime="0.00" waitingCount="0" stopTime="0.00" timeLoss="7.19" rerouteNo="1" devices="vehroute_164277_422_0 tripinfo_164277_422_0 routing_164277_422_0" vType="pkw" speedFactor="1.02" vaporized=""/>
    <tripinfo id="174717_427_0" depart="25373.00" departLane="22917421#3_0" departPos="4.40" departSpeed="0.00" departDelay="0.00" arrival="25404.00" arrivalLane="186623965#17_0" arrivalPos="143.63" arrivalSpeed="13.03" duration="31.00" routeLength="257.42" waitingTime="0.00" waitingCount="0" stopTime="0.00" timeLoss="6.82" rerouteNo="0" devices="vehroute_174717_427_0 tripinfo_174717_427_0 routing_174717_427_0" vType="pkw" speedFactor="0.97" vaporized=""/>
    <tripinfo id="142307_415_0" depart="25375.00" departLane="22917421#3_0" departPos="4.40" departSpeed="0.00" departDelay="0.00" arrival="25413.00" arrivalLane="186623965#17_0" arrivalPos="143.63" arrivalSpeed="14.53" duration="38.00" routeLength="257.42" waitingTime="6.00" waitingCount="1" stopTime="0.00" timeLoss="15.62" rerouteNo="0" devices="vehroute_142307_415_0 tripinfo_142307_415_0 routing_142307_415_0" vType="pkw" speedFactor="1.05" vaporized=""/>
    <tripinfo id="152801_419_0" depart="25299.00" departLane="-297047307_0" departPos="4.40" departSpeed="0.00" departDelay="0.00" arrival="25418.00" arrivalLane="297047309#0_0" arrivalPos="91.17" arrivalSpeed="16.56" duration="119.00" routeLength="439.92" waitingTime="79.00" waitingCount="1" stopTime="0.00" timeLoss="92.21" rerouteNo="1" devices="vehroute_152801_419_0 tripinfo_152801_419_0 routing_152801_419_0" vType="pkw" speedFactor="1.22" vaporized=""/>
    <tripinfo id="141355_415_0" depart="25232.00" departLane="-186623965#18_0" departPos="4.40" departSpeed="0.00" departDelay="0.00" arrival="25425.00" arrivalLane="42925825#0_0" arrivalPos="254.17" arrivalSpeed="13.36" duration="193.00" routeLength="625.62" waitingTime="136.00" waitingCount="1" stopTime="0.00" timeLoss="149.35" rerouteNo="1" devices="vehroute_141355_415_0 tripinfo_141355_415_0 routing_141355_415_0" vType="pkw" speedFactor="1.04" vaporized=""/>
    <tripinfo id="157954_421_0" depart="25388.00" departLane="22917421#3_0" departPos="4.40" departSpeed="0.00" departDelay="0.00" arrival="25425.00" arrivalLane="186623965#17_0" arrivalPos="143.63" arrivalSpeed="13.83" duration="37.00" routeLength="257.42" waitingTime="5.00" waitingCount="1" stopTime="0.00" timeLoss="13.31" rerouteNo="0" devices="vehroute_157954_421_0 tripinfo_157954_421_0 routing_157954_421_0" vType="pkw" speedFactor="1.01" vaporized=""/>
    <tripinfo id="131071_409_0" depart="25236.00" departLane="-186623965#18_0" departPos="4.40" departSpeed="0.00" departDelay="0.00" arrival="25427.00" arrivalLane="42925825#0_0" arrivalPos="254.17" arrivalSpeed="14.19" duration="191.00" routeLength="625.62" waitingTime="136.00" waitingCount="1" stopTime="0.00" timeLoss="146.70" rerouteNo="1" devices="vehroute_131071_409_0 tripinfo_131071_409_0 routing_131071_409_0" vType="pkw" speedFactor="1.03" vaporized=""/>
    <tripinfo id="179907_430_0" depart="25383.00" departLane="23283470#0_0" departPos="4.40" departSpeed="0.00" departDelay="0.00" arrival="25433.00" arrivalLane="23283579#1_0" arrivalPos="22.22" arrivalSpeed="12.14" duration="50.00" routeLength="367.64" waitingTime="0.00" waitingCount="0" stopTime="0.00" timeLoss="6.82" rerouteNo="1" devices="vehroute_179907_430_0 tripinfo_179907_430_0 routing_179907_430_0" vType="pkw" speedFactor="0.91" vaporized=""/>
    <tripinfo id="174787_427_0" depart="25287.00" departLane="22959550#3_0" departPos="4.40" departSpeed="0.00" departDelay="0.00" arrival="25437.00" arrivalLane="28675510#7_0" arrivalPos="257.94" arrivalSpeed="13.07" duration="150.00" routeLength="757.45" waitingTime="69.00" waitingCount="1" stopTime="0.00" timeLoss="83.42" rerouteNo="1" devices="vehroute_174787_427_0 tripinfo_174787_427_0 routing_174787_427_0" vType="pkw" speedFactor="1.01" vaporized=""/>
    <tripinfo id="146152_416_0" depart="25210.00" departLane="25166682#0_0" departPos="4.40" departSpeed="0.00" departDelay="0.00" arrival="25438.00" arrivalLane="28675510#7_0" arrivalPos="257.94" arrivalSpeed="15.18" duration="228.00" routeLength="1219.50" waitingTime="100.00" waitingCount="2" stopTime="0.00" timeLoss="130.29" rerouteNo="1" devices="vehroute_146152_416_0 tripinfo_146152_416_0 routing_146152_416_0" vType="pkw" speedFactor="1.10" vaporized=""/>
    <tripinfo id="83049_390_0" depart="25408.00" departLane="-4936412_0" departPos="4.40" departSpeed="0.00" departDelay="0.00" arrival="25438.00" arrivalLane="8716827#0_0" arrivalPos="109.12" arrivalSpeed="8.45" duration="30.00" routeLength="148.59" waitingTime="4.00" waitingCount="1" stopTime="0.00" timeLoss="14.12" rerouteNo="0" devices="vehroute_83049_390_0 tripinfo_83049_390_0 routing_83049_390_0" vType="pkw" speedFactor="1.03" vaporized=""/>
    <tripinfo id="146391_416_0" depart="25313.00" departLane="-28675510#0_0" departPos="4.40" departSpeed="0.00" departDelay="0.00" arrival="25441.00" arrivalLane="28675510#7_0" arrivalPos="257.94" arrivalSpeed="13.71" duration="128.00" routeLength="752.27" waitingTime="60.00" waitingCount="1" stopTime="0.00" timeLoss="73.83" rerouteNo="1" devices="vehroute_146391_416_0 tripinfo_146391_416_0 routing_146391_416_0" vType="pkw" speedFactor="1.02" vaporized=""/>
    <tripinfo id="121484_406_0" depart="25268.00" departLane="-23283579#1_0" departPos="4.40" departSpeed="0.00" departDelay="0.00" arrival="25443.00" arrivalLane="133081987#3_0" arrivalPos="99.94" arrivalSpeed="13.32" duration="175.00" routeLength="434.85" waitingTime="123.00" waitingCount="2" stopTime="0.00" timeLoss="143.32" rerouteNo="1" devices="vehroute_121484_406_0 tripinfo_121484_406_0 routing_121484_406_0" vType="pkw" speedFactor="1.00" vaporized=""/>
    <tripinfo id="148419_417_0" depart="25363.00" departLane="133081987#3_0" departPos="4.40" departSpeed="0.00" departDelay="0.00" arrival="25443.00" arrivalLane="297047309#0_0" arrivalPos="91.17" arrivalSpeed="13.79" duration="80.00" routeLength="785.73" waitingTime="0.00" waitingCount="0" stopTime="0.00" timeLoss="9.64" rerouteNo="1" devices="vehroute_148419_417_0 tripinfo_148419_417_0 routing_148419_417_0" vType="pkw" speedFactor="1.06" vaporized=""/>
    <tripinfo id="154420_420_0" depart="25411.00" departLane="22917421#3_0" departPos="4.40" departSpeed="0.00" departDelay="0.00" arrival="25444.00" arrivalLane="186623965#17_0" arrivalPos="143.63" arrivalSpeed="12.88" duration="33.00" routeLength="257.42" waitingTime="1.00" waitingCount="1" stopTime="0.00" timeLoss="8.89" rerouteNo="0" devices="vehroute_154420_420_0 tripinfo_154420_420_0 routing_154420_420_0" vType="pkw" speedFactor="0.99" vaporized=""/>
    <tripinfo id="67978_381_0" depart="25412.00" departLane="-4936412_0" departPos="4.40" departSpeed="0.00" departDelay="0.00" arrival="25445.00" arrivalLane="8716827#0_0" arrivalPos="109.12" arrivalSpeed="6.58" duration="33.00" routeLength="148.59" waitingTime="2.00" waitingCount="1" stopTime="0.00" timeLoss="12.32" rerouteNo="0" devices="vehroute_67978_381_0 tripinfo_67978_381_0 routing_67978_381_0" vType="pkw" speedFactor="0.81" vaporized=""/>
    <tripinfo id="166776_424_0" depart="25209.00" departLane="-28675510#11_0" departPos="4.40" departSpeed="0.00" departDelay="1.00" arrival="25448.00" arrivalLane="-186623965#14_1" arrivalPos="159.69" arrivalSpeed="14.56" duration="239.00" routeLength="1202.17" waitingTime="108.00" waitingCount="3" stopTime="0.00" timeLoss="137.41" rerouteNo="1" devices="vehroute_166776_424_0 tripinfo_166776_424_0 routing_166776_424_0" vType="pkw" speedFactor="1.12" vaporized=""/>
    <tripinfo id="154646_420_0" depart="25419.00" departLane="25166682#0_0" departPos="4.40" departSpeed="0.00" departDelay="0.00" arrival="25448.00" arrivalLane="323450710#0_0" arrivalPos="95.59" arrivalSpeed="12.99" duration="29.00" routeLength="289.69" waitingTime="0.00" waitingCount="0" stopTime="0.00" timeLoss="6.84" rerouteNo="1" devices="vehroute_154646_420_0 tripinfo_154646_420_0 routing_154646_420_0" vType="pkw" speedFactor="0.96" vaporized=""/>
    <tripinfo id="114597_403_0" depart="25201.00" departLane="22917421#3_0" departPos="4.40" departSpeed="0.00" departDelay="0.00" arrival="25450.00" arrivalLane="-186623965#14_0" arrivalPos="159.69" arrivalSpeed="11.83" duration="249.00" routeLength="476.78" waitingTime="188.00" waitingCount="2" stopTime="0.00" timeLoss="207.39" rerouteNo="1" devices="vehroute_114597_403_0 tripinfo_114597_403_0 routing_114597_403_0" vType="pkw" speedFactor="0.94" vaporized=""/>
    <tripinfo id="175131_428_0" depart="25328.00" departLane="23840713#2_0" departPos="4.40" departSpeed="0.00" departDelay="0.00" arrival="25450.00" arrivalLane="42925825#0_0" arrivalPos="254.17" arrivalSpeed="14.70" duration="122.00" routeLength="1254.72" waitingTime="6.00" waitingCount="1" stopTime="0.00" timeLoss="22.16" rerouteNo="1" devices="vehroute_175131_428_0 tripinfo_175131_428_0 routing_175131_428_0" vType="pkw" speedFactor="1.08" vaporized=""/>
    <tripinfo id="146111_416_0" depart="25223.00" departLane="-28675510#11_0" departPos="4.40" departSpeed="0.00" departDelay="2.00" arrival="25452.00" arrivalLane="-186623965#14_1" arrivalPos="159.69" arrivalSpeed="14.40" duration="229.00" routeLength="1202.17" waitingTime="77.00" waitingCount="6" stopTime="0.00" timeLoss="120.05" rerouteNo="1" devices="vehroute_146111_416_0 tripinfo_146111_416_0 routing_146111_416_0" vType="pkw" speedFactor="1.04" vaporized=""/>
    <tripinfo id="113370_402_0" depart="25249.00" departLane="186623965#9_0" departPos="4.40" departSpeed="0.00" departDelay="0.00" arrival="25454.00" arrivalLane="42925825#0_0" arrivalPos="254.17" arrivalSpeed="14.59" duration="205.00" routeLength="418.48" waitingTime="167.00" waitingCount="1" stopTime="0.00" timeLoss="177.67" rerouteNo="0" devices="vehroute_113370_402_0 tripinfo_113370_402_0 routing_113370_402_0" vType="pkw" speedFactor="1.11" vaporized=""/>
    <tripinfo id="140363_414_0" depart="25313.00" departLane="22917421#3_0" departPos="4.40" departSpeed="0.00" departDelay="0.00" arrival="25454.00" arrivalLane="-186623965#14_0" arrivalPos="159.69" arrivalSpeed="13.59" duration="141.00" routeLength="476.78" waitingTime="78.00" waitingCount="5" stopTime="0.00" timeLoss="102.78" rerouteNo="1" devices="vehroute_140363_414_0 tripinfo_140363_414_0 routing_140363_414_0" vType="pkw" speedFactor="1.04" vaporized=""/>
    <tripinfo id="117517_404_0" depart="25225.00" departLane="-28675510#11_0" departPos="4.40" departSpeed="0.00" departDelay="1.00" arrival="25455.00" arrivalLane="-186623965#14_1" arrivalPos="159.69" arrivalSpeed="12.50" duration="230.00" routeLength="1202.17" waitingTime="73.00" waitingCount="4" stopTime="0.00" timeLoss="112.77" rerouteNo="1" devices="vehroute_117517_404_0 tripinfo_117517_404_0 routing_117517_404_0" vType="pkw" speedFactor="0.97" vaporized=""/>
    <tripinfo id="134428_411_0" depart="25237.00" departLane="-28675510#11_0" departPos="4.40" departSpeed="0.00" departDelay="0.00" arrival="25456.00" arrivalLane="28675510#7_0" arrivalPos="257.94" arrivalSpeed="13.12" duration="219.00" routeLength="516.12" waitingTime="146.00" waitingCount="4" stopTime="0.00" timeLoss="181.25" rerouteNo="0" devices="vehroute_134428_411_0 tripinfo_134428_411_0 routing_134428_411_0" vType="pkw" speedFactor="1.01" vaporized=""/>
    <tripinfo id="145282_416_0" depart="25259.00" departLane="186623965#9_0" departPos="4.40" departSpeed="0.00" departDelay="0.00" arrival="25457.00" arrivalLane="42925825#0_0" arrivalPos="254.17" arrivalSpeed="13.13" duration="198.00" routeLength="418.48" waitingTime="159.00" waitingCount="1" stopTime="0.00" timeLoss="168.16" rerouteNo="0" devices="vehroute_145282_416_0 tripinfo_145282_416_0 routing_145282_416_0" vType="pkw" speedFactor="1.03" vaporized=""/>