<?xml version="1.0" encoding="UTF-8"?>

<!-- generated on 2025-05-20 17:39:14 by Eclipse SUMO sumo Version 1.20.0
<configuration xmlns:xsi="http://www.w3.org/2001/XMLSchema-instance" xsi:noNamespaceSchemaLocation="http://sumo.dlr.de/xsd/sumoConfiguration.xsd">

    <input>
        <net-file value="C:\Users\skang\Desktop\최석환\강의\무인항공딥러닝개론\RESCO-main\resco_benchmark\environments/cologne8/cologne8.net.xml"/>
        <route-files value="C:\Users\skang\Desktop\최석환\강의\무인항공딥러닝개론\RESCO-main\resco_benchmark\environments/cologne8/cologne8.rou.xml"/>
    </input>

    <output>
        <tripinfo-output value="C:\Users\skang\Desktop\최석환\강의\무인항공딥러닝개론\results\MPLight-tr0-cologne8-0-mplight-pressure\tripinfo_79.xml"/>
        <tripinfo-output.write-unfinished value="true"/>
        <vehroute-output value="C:\Users\skang\Desktop\최석환\강의\무인항공딥러닝개론\results\MPLight-tr0-cologne8-0-mplight-pressure\route_79.xml"/>
        <vehroute-output.sorted value="True"/>
        <vehroute-output.write-unfinished value="True"/>
        <collision-output value="C:\Users\skang\Desktop\최석환\강의\무인항공딥러닝개론\results\MPLight-tr0-cologne8-0-mplight-pressure\coll_79.xml"/>
        <statistic-output value="C:\Users\skang\Desktop\최석환\강의\무인항공딥러닝개론\results\MPLight-tr0-cologne8-0-mplight-pressure\stats_79.xml"/>
    </output>

    <time>
        <begin value="25200"/>
        <end value="28800"/>
    </time>

    <processing>
        <time-to-teleport value="-1"/>
    </processing>

    <report>
        <no-warnings value="True"/>
        <no-step-log value="True"/>
    </report>

    <traci_server>
        <remote-port value="57550"/>
    </traci_server>

    <random_number>
        <random value="true"/>
    </random_number>

</configuration>
-->

<tripinfos xmlns:xsi="http://www.w3.org/2001/XMLSchema-instance" xsi:noNamespaceSchemaLocation="http://sumo.dlr.de/xsd/tripinfo_file.xsd">
    <tripinfo id="142890_415_0" depart="25218.00" departLane="-23283579#1_0" departPos="4.40" departSpeed="0.00" departDelay="0.00" arrival="25225.00" arrivalLane="23283579#1_0" arrivalPos="22.22" arrivalSpeed="12.64" duration="7.00" routeLength="44.72" waitingTime="0.00" waitingCount="0" stopTime="0.00" timeLoss="3.24" rerouteNo="0" devices="vehroute_142890_415_0 tripinfo_142890_415_0 routing_142890_415_0" vType="pkw" speedFactor="0.92" vaporized=""/>
    <tripinfo id="137312_412_0" depart="25200.00" departLane="-23283579#1_0" departPos="4.40" departSpeed="0.00" departDelay="0.00" arrival="25234.00" arrivalLane="23283436_0" arrivalPos="65.76" arrivalSpeed="12.24" duration="34.00" routeLength="404.67" waitingTime="0.00" waitingCount="0" stopTime="0.00" timeLoss="3.62" rerouteNo="1" devices="vehroute_137312_412_0 tripinfo_137312_412_0 routing_137312_412_0" vType="pkw" speedFactor="0.97" vaporized=""/>
    <tripinfo id="137959_412_0" depart="25209.00" departLane="-186623965#18_0" departPos="4.40" departSpeed="0.00" departDelay="0.00" arrival="25238.00" arrivalLane="-22917421#4_0" arrivalPos="96.26" arrivalSpeed="7.06" duration="29.00" routeLength="263.02" waitingTime="0.00" waitingCount="0" stopTime="0.00" timeLoss="4.79" rerouteNo="0" devices="vehroute_137959_412_0 tripinfo_137959_412_0 routing_137959_412_0" vType="pkw" speedFactor="1.00" vaporized=""/>
    <tripinfo id="155570_420_0" depart="25200.00" departLane="-28675510#11_0" departPos="4.40" departSpeed="0.00" departDelay="0.00" arrival="25258.00" arrivalLane="28675510#7_0" arrivalPos="257.94" arrivalSpeed="10.92" duration="58.00" routeLength="516.12" waitingTime="5.00" waitingCount="1" stopTime="0.00" timeLoss="14.13" rerouteNo="0" devices="vehroute_155570_420_0 tripinfo_155570_420_0 routing_155570_420_0" vType="pkw" speedFactor="0.85" vaporized=""/>
    <tripinfo id="119181_405_0" depart="25226.00" departLane="186623965#9_0" departPos="4.40" departSpeed="0.00" departDelay="0.00" arrival="25259.00" arrivalLane="42925825#0_0" arrivalPos="254.17" arrivalSpeed="14.86" duration="33.00" routeLength="418.48" waitingTime="0.00" waitingCount="0" stopTime="0.00" timeLoss="4.67" rerouteNo="0" devices="vehroute_119181_405_0 tripinfo_119181_405_0 routing_119181_405_0" vType="pkw" speedFactor="1.08" vaporized=""/>
    <tripinfo id="134603_411_0" depart="25206.00" departLane="-28675510#11_0" departPos="4.40" departSpeed="0.00" departDelay="0.00" arrival="25260.00" arrivalLane="28675510#7_0" arrivalPos="257.94" arrivalSpeed="15.81" duration="54.00" routeLength="516.12" waitingTime="5.00" waitingCount="1" stopTime="0.00" timeLoss="21.83" rerouteNo="0" devices="vehroute_134603_411_0 tripinfo_134603_411_0 routing_134603_411_0" vType="pkw" speedFactor="1.19" vaporized=""/>
    <tripinfo id="140525_414_0" depart="25221.00" departLane="186623965#9_0" departPos="4.40" departSpeed="0.00" departDelay="0.00" arrival="25261.00" arrivalLane="186623965#17_0" arrivalPos="143.63" arrivalSpeed="14.17" duration="40.00" routeLength="527.61" waitingTime="0.00" waitingCount="0" stopTime="0.00" timeLoss="4.82" rerouteNo="1" devices="vehroute_140525_414_0 tripinfo_140525_414_0 routing_140525_414_0" vType="pkw" speedFactor="1.08" vaporized=""/>
    <tripinfo id="161942_421_0" depart="25233.00" departLane="-42925825#2_0" departPos="4.40" departSpeed="0.00" departDelay="0.00" arrival="25281.00" arrivalLane="42925825#0_0" arrivalPos="254.17" arrivalSpeed="12.96" duration="48.00" routeLength="508.64" waitingTime="0.00" waitingCount="0" stopTime="0.00" timeLoss="10.62" rerouteNo="0" devices="vehroute_161942_421_0 tripinfo_161942_421_0 routing_161942_421_0" vType="pkw" speedFactor="1.00" vaporized=""/>
    <tripinfo id="163799_422_0" depart="25256.00" departLane="-186623965#18_0" departPos="4.40" departSpeed="0.00" departDelay="1.00" arrival="25285.00" arrivalLane="-22917421#4_0" arrivalPos="96.26" arrivalSpeed="8.16" duration="29.00" routeLength="263.02" waitingTime="0.00" waitingCount="0" stopTime="0.00" timeLoss="4.87" rerouteNo="0" devices="vehroute_163799_422_0 tripinfo_163799_422_0 routing_163799_422_0" vType="pkw" speedFactor="1.03" vaporized=""/>
    <tripinfo id="111571_401_0" depart="25267.00" departLane="-353069169#0_0" departPos="4.40" departSpeed="0.00" departDelay="0.00" arrival="25293.00" arrivalLane="24487264_0" arrivalPos="166.35" arrivalSpeed="14.68" duration="26.00" routeLength="286.19" waitingTime="0.00" waitingCount="0" stopTime="0.00" timeLoss="5.72" rerouteNo="1" devices="vehroute_111571_401_0 tripinfo_111571_401_0 routing_111571_401_0" vType="pkw" speedFactor="1.10" vaporized=""/>
    <tripinfo id="141355_415_0" depart="25232.00" departLane="-186623965#18_0" departPos="4.40" departSpeed="0.00" departDelay="0.00" arrival="25300.00" arrivalLane="42925825#0_0" arrivalPos="254.17" arrivalSpeed="11.30" duration="68.00" routeLength="625.62" waitingTime="2.00" waitingCount="1" stopTime="0.00" timeLoss="14.80" rerouteNo="1" devices="vehroute_141355_415_0 tripinfo_141355_415_0 routing_141355_415_0" vType="pkw" speedFactor="0.86" vaporized=""/>
    <tripinfo id="131071_409_0" depart="25236.00" departLane="-186623965#18_0" departPos="4.40" departSpeed="0.00" departDelay="0.00" arrival="25301.00" arrivalLane="42925825#0_0" arrivalPos="254.17" arrivalSpeed="11.78" duration="65.00" routeLength="625.62" waitingTime="2.00" waitingCount="1" stopTime="0.00" timeLoss="15.85" rerouteNo="1" devices="vehroute_131071_409_0 tripinfo_131071_409_0 routing_131071_409_0" vType="pkw" speedFactor="0.92" vaporized=""/>
    <tripinfo id="121484_406_0" depart="25268.00" departLane="-23283579#1_0" departPos="4.40" departSpeed="0.00" departDelay="0.00" arrival="25302.00" arrivalLane="133081987#3_0" arrivalPos="99.94" arrivalSpeed="16.19" duration="34.00" routeLength="434.85" waitingTime="0.00" waitingCount="0" stopTime="0.00" timeLoss="8.68" rerouteNo="1" devices="vehroute_121484_406_0 tripinfo_121484_406_0 routing_121484_406_0" vType="pkw" speedFactor="1.26" vaporized=""/>
    <tripinfo id="126900_407_0" depart="25239.00" departLane="-186623965#18_0" departPos="4.40" departSpeed="0.00" departDelay="0.00" arrival="25303.00" arrivalLane="42925825#0_0" arrivalPos="254.17" arrivalSpeed="12.32" duration="64.00" routeLength="625.62" waitingTime="1.00" waitingCount="1" stopTime="0.00" timeLoss="15.74" rerouteNo="1" devices="vehroute_126900_407_0 tripinfo_126900_407_0 routing_126900_407_0" vType="pkw" speedFactor="0.95" vaporized=""/>
    <tripinfo id="126698_407_0" depart="25242.00" departLane="-186623965#18_0" departPos="4.40" departSpeed="0.00" departDelay="1.00" arrival="25307.00" arrivalLane="42925825#0_0" arrivalPos="254.17" arrivalSpeed="12.27" duration="65.00" routeLength="625.62" waitingTime="2.00" waitingCount="1" stopTime="0.00" timeLoss="16.88" rerouteNo="1" devices="vehroute_126698_407_0 tripinfo_126698_407_0 routing_126698_407_0" vType="pkw" speedFactor="0.94" vaporized=""/>
    <tripinfo id="127809_407_0" depart="25258.00" departLane="-23283579#1_0" departPos="4.40" departSpeed="0.00" departDelay="1.00" arrival="25310.00" arrivalLane="23285888#0_0" arrivalPos="109.58" arrivalSpeed="7.85" duration="52.00" routeLength="410.95" waitingTime="0.00" waitingCount="0" stopTime="0.00" timeLoss="6.59" rerouteNo="1" devices="vehroute_127809_407_0 tripinfo_127809_407_0 routing_127809_407_0" vType="pkw" speedFactor="1.00" vaporized=""/>
    <tripinfo id="161216_421_0" depart="25250.00" departLane="-186623965#18_0" departPos="4.40" departSpeed="0.00" departDelay="2.00" arrival="25311.00" arrivalLane="42925825#0_0" arrivalPos="254.17" arrivalSpeed="11.91" duration="61.00" routeLength="625.62" waitingTime="0.00" waitingCount="0" stopTime="0.00" timeLoss="8.76" rerouteNo="1" devices="vehroute_161216_421_0 tripinfo_161216_421_0 routing_161216_421_0" vType="pkw" speedFactor="0.88" vaporized=""/>
    <tripinfo id="150593_418_0" depart="25297.00" departLane="22959552#0_0" departPos="4.40" departSpeed="0.00" departDelay="0.00" arrival="25311.00" arrivalLane="22959552#0_0" arrivalPos="91.39" arrivalSpeed="6.89" duration="14.00" routeLength="86.99" waitingTime="0.00" waitingCount="0" stopTime="0.00" timeLoss="2.59" rerouteNo="1" devices="vehroute_150593_418_0 tripinfo_150593_418_0 routing_150593_418_0" vType="pkw" speedFactor="0.92" vaporized=""/>
    <tripinfo id="159622_421_0" depart="25253.00" departLane="-186623965#18_0" departPos="4.40" departSpeed="0.00" departDelay="2.00" arrival="25312.00" arrivalLane="42925825#0_0" arrivalPos="254.17" arrivalSpeed="13.20" duration="59.00" routeLength="625.62" waitingTime="0.00" waitingCount="0" stopTime="0.00" timeLoss="13.11" rerouteNo="1" devices="vehroute_159622_421_0 tripinfo_159622_421_0 routing_159622_421_0" vType="pkw" speedFactor="0.99" vaporized=""/>
    <tripinfo id="91556_392_0" depart="25270.00" departLane="-23283579#1_0" departPos="4.40" departSpeed="0.00" departDelay="0.00" arrival="25326.00" arrivalLane="23840972_0" arrivalPos="97.66" arrivalSpeed="7.83" duration="56.00" routeLength="525.30" waitingTime="0.00" waitingCount="0" stopTime="0.00" timeLoss="9.33" rerouteNo="1" devices="vehroute_91556_392_0 tripinfo_91556_392_0 routing_91556_392_0" vType="pkw" speedFactor="0.99" vaporized=""/>
    <tripinfo id="171184_426_0" depart="25326.00" departLane="133081987#0_0" departPos="4.40" departSpeed="0.00" departDelay="0.00" arrival="25343.00" arrivalLane="23283436_0" arrivalPos="65.76" arrivalSpeed="15.30" duration="17.00" routeLength="154.99" waitingTime="0.00" waitingCount="0" stopTime="0.00" timeLoss="7.13" rerouteNo="0" devices="vehroute_171184_426_0 tripinfo_171184_426_0 routing_171184_426_0" vType="pkw" speedFactor="1.18" vaporized=""/>
    <tripinfo id="144017_416_0" depart="25348.00" departLane="-353069169#0_0" departPos="4.40" departSpeed="0.00" departDelay="0.00" arrival="25367.00" arrivalLane="323416262_0" arrivalPos="87.54" arrivalSpeed="11.81" duration="19.00" routeLength="175.35" waitingTime="0.00" waitingCount="0" stopTime="0.00" timeLoss="4.38" rerouteNo="0" devices="vehroute_144017_416_0 tripinfo_144017_416_0 routing_144017_416_0" vType="pkw" speedFactor="0.88" vaporized=""/>
    <tripinfo id="108769_400_0" depart="25356.00" departLane="-186623965#18_0" departPos="4.40" departSpeed="0.00" departDelay="0.00" arrival="25386.00" arrivalLane="-22917421#4_0" arrivalPos="96.26" arrivalSpeed="7.05" duration="30.00" routeLength="263.02" waitingTime="0.00" waitingCount="0" stopTime="0.00" timeLoss="5.60" rerouteNo="0" devices="vehroute_108769_400_0 tripinfo_108769_400_0 routing_108769_400_0" vType="pkw" speedFactor="0.99" vaporized=""/>
    <tripinfo id="96268_394_0" depart="25369.00" departLane="-186623965#18_0" departPos="4.40" departSpeed="0.00" departDelay="0.00" arrival="25400.00" arrivalLane="-22917421#4_0" arrivalPos="96.26" arrivalSpeed="7.58" duration="31.00" routeLength="263.02" waitingTime="0.00" waitingCount="0" stopTime="0.00" timeLoss="5.50" rerouteNo="0" devices="vehroute_96268_394_0 tripinfo_96268_394_0 routing_96268_394_0" vType="pkw" speedFactor="0.98" vaporized=""/>
    <tripinfo id="120970_405_0" depart="25343.00" departLane="-23283579#1_0" departPos="4.40" departSpeed="0.00" departDelay="0.00" arrival="25405.00" arrivalLane="23283470#5_0" arrivalPos="89.27" arrivalSpeed="8.84" duration="62.00" routeLength="393.04" waitingTime="9.00" waitingCount="1" stopTime="0.00" timeLoss="23.31" rerouteNo="1" devices="vehroute_120970_405_0 tripinfo_120970_405_0 routing_120970_405_0" vType="pkw" speedFactor="1.12" vaporized=""/>
    <tripinfo id="179907_430_0" depart="25383.00" departLane="23283470#0_0" departPos="4.40" departSpeed="0.00" departDelay="0.00" arrival="25424.00" arrivalLane="23283579#1_0" arrivalPos="22.22" arrivalSpeed="15.50" duration="41.00" routeLength="367.64" waitingTime="0.00" waitingCount="0" stopTime="0.00" timeLoss="7.10" rerouteNo="1" devices="vehroute_179907_430_0 tripinfo_179907_430_0 routing_179907_430_0" vType="pkw" speedFactor="1.15" vaporized=""/>
    <tripinfo id="164388_422_0" depart="25405.00" departLane="-186623965#18_0" departPos="4.40" departSpeed="0.00" departDelay="0.00" arrival="25434.00" arrivalLane="-22917421#4_0" arrivalPos="96.26" arrivalSpeed="8.10" duration="29.00" routeLength="263.02" waitingTime="0.00" waitingCount="0" stopTime="0.00" timeLoss="6.37" rerouteNo="0" devices="vehroute_164388_422_0 tripinfo_164388_422_0 routing_164388_422_0" vType="pkw" speedFactor="1.08" vaporized=""/>
    <tripinfo id="83049_390_0" depart="25408.00" departLane="-4936412_0" departPos="4.40" departSpeed="0.00" departDelay="0.00" arrival="25441.00" arrivalLane="8716827#0_0" arrivalPos="109.12" arrivalSpeed="7.23" duration="33.00" routeLength="148.59" waitingTime="6.00" waitingCount="1" stopTime="0.00" timeLoss="14.65" rerouteNo="0" devices="vehroute_83049_390_0 tripinfo_83049_390_0 routing_83049_390_0" vType="pkw" speedFactor="0.93" vaporized=""/>
    <tripinfo id="67978_381_0" depart="25412.00" departLane="-4936412_0" departPos="4.40" departSpeed="0.00" departDelay="0.00" arrival="25443.00" arrivalLane="8716827#0_0" arrivalPos="109.12" arrivalSpeed="7.83" duration="31.00" routeLength="148.59" waitingTime="4.00" waitingCount="1" stopTime="0.00" timeLoss="12.81" rerouteNo="0" devices="vehroute_67978_381_0 tripinfo_67978_381_0 routing_67978_381_0" vType="pkw" speedFactor="0.94" vaporized=""/>
    <tripinfo id="154646_420_0" depart="25419.00" departLane="25166682#0_0" departPos="4.40" departSpeed="0.00" departDelay="0.00" arrival="25447.00" arrivalLane="323450710#0_0" arrivalPos="95.59" arrivalSpeed="13.12" duration="28.00" routeLength="289.69" waitingTime="0.00" waitingCount="0" stopTime="0.00" timeLoss="5.79" rerouteNo="1" devices="vehroute_154646_420_0 tripinfo_154646_420_0 routing_154646_420_0" vType="pkw" speedFactor="0.97" vaporized=""/>
    <tripinfo id="175131_428_0" depart="25328.00" departLane="23840713#2_0" departPos="4.40" departSpeed="0.00" departDelay="0.00" arrival="25448.00" arrivalLane="42925825#0_0" arrivalPos="254.17" arrivalSpeed="13.66" duration="120.00" routeLength="1254.72" waitingTime="0.00" waitingCount="0" stopTime="0.00" timeLoss="11.23" rerouteNo="1" devices="vehroute_175131_428_0 tripinfo_175131_428_0 routing_175131_428_0" vType="pkw" speedFactor="1.00" vaporized=""/>
    <tripinfo id="118988_405_0" depart="25416.00" departLane="-186623965#18_0" departPos="4.40" departSpeed="0.00" departDelay="1.00" arrival="25448.00" arrivalLane="-22917421#4_0" arrivalPos="96.26" arrivalSpeed="7.36" duration="32.00" routeLength="263.02" waitingTime="0.00" waitingCount="0" stopTime="0.00" timeLoss="6.33" rerouteNo="0" devices="vehroute_118988_405_0 tripinfo_118988_405_0 routing_118988_405_0" vType="pkw" speedFactor="0.98" vaporized=""/>
    <tripinfo id="171631_426_0" depart="25415.00" departLane="23283470#0_0" departPos="4.40" departSpeed="0.00" departDelay="0.00" arrival="25460.00" arrivalLane="23283579#1_0" arrivalPos="22.22" arrivalSpeed="14.01" duration="45.00" routeLength="367.64" waitingTime="0.00" waitingCount="0" stopTime="0.00" timeLoss="6.07" rerouteNo="1" devices="vehroute_171631_426_0 tripinfo_171631_426_0 routing_171631_426_0" vType="pkw" speedFactor="1.01" vaporized=""/>
    <tripinfo id="122677_406_0" depart="25441.00" departLane="-4936412_0" departPos="4.40" departSpeed="0.00" departDelay="0.00" arrival="25461.00" arrivalLane="8716827#0_0" arrivalPos="109.12" arrivalSpeed="8.74" duration="20.00" routeLength="148.59" waitingTime="0.00" waitingCount="0" stopTime="0.00" timeLoss="4.62" rerouteNo="0" devices="vehroute_122677_406_0 tripinfo_122677_406_0 routing_122677_406_0" vType="pkw" speedFactor="1.11" vaporized=""/>
    <tripinfo id="167565_425_0" depart="25382.00" departLane="-25166682#0_0" departPos="4.40" departSpeed="0.00" departDelay="0.00" arrival="25471.00" arrivalLane="23283579#1_0" arrivalPos="22.22" arrivalSpeed="12.46" duration="89.00" routeLength="787.93" waitingTime="0.00" waitingCount="0" stopTime="0.00" timeLoss="11.53" rerouteNo="1" devices="vehroute_167565_425_0 tripinfo_167565_425_0 routing_167565_425_0" vType="pkw" speedFactor="0.97" vaporized=""/>
    <tripinfo id="166238_424_0" depart="25449.00" departLane="42925825#0_0" departPos="4.40" departSpeed="0.00" departDelay="0.00" arrival="25471.00" arrivalLane="42925825#0_0" arrivalPos="254.17" arrivalSpeed="13.03" duration="22.00" routeLength="249.77" waitingTime="0.00" waitingCount="0" stopTime="0.00" timeLoss="3.35" rerouteNo="1" devices="vehroute_166238_424_0 tripinfo_166238_424_0 routing_166238_424_0" vType="pkw" speedFactor="0.97" vaporized=""/>
    <tripinfo id="139487_413_0" depart="25456.00" departLane="-4936412_0" departPos="4.40" departSpeed="0.00" departDelay="0.00" arrival="25476.00" arrivalLane="8716827#0_0" arrivalPos="109.12" arrivalSpeed="8.34" duration="20.00" routeLength="148.59" waitingTime="0.00" waitingCount="0" stopTime="0.00" timeLoss="4.24" rerouteNo="0" devices="vehroute_139487_413_0 tripinfo_139487_413_0 routing_139487_413_0" vType="pkw" speedFactor="1.08" vaporized=""/>
    <tripinfo id="148727_417_0" depart="25479.00" departLane="23283579#1_0" departPos="4.40" departSpeed="0.00" departDelay="0.00" arrival="25483.00" arrivalLane="23283579#1_0" arrivalPos="22.22" arrivalSpeed="7.86" duration="4.00" routeLength="17.82" waitingTime="0.00" waitingCount="0" stopTime="0.00" timeLoss="2.85" rerouteNo="1" devices="vehroute_148727_417_0 tripinfo_148727_417_0 routing_148727_417_0" vType="pkw" speedFactor="1.17" vaporized=""/>
    <tripinfo id="156503_420_0" depart="25472.00" departLane="297047308_0" departPos="4.40" departSpeed="0.00" departDelay="0.00" arrival="25493.00" arrivalLane="297047309#0_0" arrivalPos="91.17" arrivalSpeed="11.11" duration="21.00" routeLength="211.14" waitingTime="0.00" waitingCount="0" stopTime="0.00" timeLoss="2.80" rerouteNo="1" devices="vehroute_156503_420_0 tripinfo_156503_420_0 routing_156503_420_0" vType="pkw" speedFactor="0.83" vaporized=""/>
    <tripinfo id="146495_416_0" depart="25369.00" departLane="23840712#0_0" departPos="4.40" departSpeed="0.00" departDelay="0.00" arrival="25494.00" arrivalLane="-186623965#14_0" arrivalPos="159.69" arrivalSpeed="12.26" duration="125.00" routeLength="1176.49" waitingTime="0.00" waitingCount="0" stopTime="0.00" timeLoss="10.34" rerouteNo="1" devices="vehroute_146495_416_0 tripinfo_146495_416_0 routing_146495_416_0" vType="pkw" speedFactor="0.91" vaporized=""/>
    <tripinfo id="138031_412_0" depart="25371.00" departLane="-23283579#1_0" departPos="4.40" departSpeed="0.00" departDelay="0.00" arrival="25496.00" arrivalLane="-23840935_0" arrivalPos="84.89" arrivalSpeed="5.84" duration="125.00" routeLength="841.31" waitingTime="0.00" waitingCount="0" stopTime="0.00" timeLoss="14.68" rerouteNo="1" devices="vehroute_138031_412_0 tripinfo_138031_412_0 routing_138031_412_0" vType="pkw" speedFactor="0.77" vaporized=""/>
    <tripinfo id="169793_426_0" depart="25405.00" departLane="290365598#0_0" departPos="4.40" departSpeed="0.00" departDelay="0.00" arrival="25496.00" arrivalLane="-186623965#14_0" arrivalPos="159.69" arrivalSpeed="14.48" duration="91.00" routeLength="1074.79" waitingTime="0.00" waitingCount="0" stopTime="0.00" timeLoss="14.90" rerouteNo="1" devices="vehroute_169793_426_0 tripinfo_169793_426_0 routing_169793_426_0" vType="pkw" speedFactor="1.21" vaporized=""/>
    <tripinfo id="136088_411_0" depart="25475.00" departLane="-4936412_0" departPos="4.40" departSpeed="0.00" departDelay="0.00" arrival="25498.00" arrivalLane="8716827#0_0" arrivalPos="109.12" arrivalSpeed="7.38" duration="23.00" routeLength="148.59" waitingTime="0.00" waitingCount="0" stopTime="0.00" timeLoss="4.46" rerouteNo="0" devices="vehroute_136088_411_0 tripinfo_136088_411_0 routing_136088_411_0" vType="pkw" speedFactor="0.89" vaporized=""/>
    <tripinfo id="137017_412_0" depart="25466.00" departLane="-186623965#18_0" departPos="4.40" departSpeed="0.00" departDelay="0.00" arrival="25500.00" arrivalLane="-22917421#4_0" arrivalPos="96.26" arrivalSpeed="6.17" duration="34.00" routeLength="263.02" waitingTime="0.00" waitingCount="0" stopTime="0.00" timeLoss="5.28" rerouteNo="0" devices="vehroute_137017_412_0 tripinfo_137017_412_0 routing_137017_412_0" vType="pkw" speedFactor="0.86" vaporized=""/>
    <tripinfo id="110175_401_0" depart="25490.00" departLane="-4936412_0" departPos="4.40" departSpeed="0.00" departDelay="0.00" arrival="25505.00" arrivalLane="155723703#0_0" arrivalPos="92.60" arrivalSpeed="12.91" duration="15.00" routeLength="132.82" waitingTime="0.00" waitingCount="0" stopTime="0.00" timeLoss="4.39" rerouteNo="0" devices="vehroute_110175_401_0 tripinfo_110175_401_0 routing_110175_401_0" vType="pkw" speedFactor="0.95" vaporized=""/>
    <tripinfo id="115107_403_0" depart="25488.00" departLane="-4936412_0" departPos="4.40" departSpeed="0.00" departDelay="0.00" arrival="25509.00" arrivalLane="8716827#0_0" arrivalPos="109.12" arrivalSpeed="7.25" duration="21.00" routeLength="148.59" waitingTime="0.00" waitingCount="0" stopTime="0.00" timeLoss="4.05" rerouteNo="0" devices="vehroute_115107_403_0 tripinfo_115107_403_0 routing_115107_403_0" vType="pkw" speedFactor="0.99" vaporized=""/>
    <tripinfo id="82749_390_0" depart="25496.00" departLane="-4936412_0" departPos="4.40" departSpeed="0.00" departDelay="0.00" arrival="25511.00" arrivalLane="155723703#0_0" arrivalPos="92.60" arrivalSpeed="13.97" duration="15.00" routeLength="132.82" waitingTime="0.00" waitingCount="0" stopTime="0.00" timeLoss="5.30" rerouteNo="0" devices="vehroute_82749_390_0 tripinfo_82749_390_0 routing_82749_390_0" vType="pkw" speedFactor="1.04" vaporized=""/>
    <tripinfo id="171497_426_0" depart="25456.00" departLane="23647126_0" departPos="4.40" departSpeed="0.00" departDelay="0.00" arrival="25521.00" arrivalLane="23283579#1_0" arrivalPos="22.22" arrivalSpeed="15.47" duration="65.00" routeLength="603.45" waitingTime="0.00" waitingCount="0" stopTime="0.00" timeLoss="6.70" rerouteNo="1" devices="vehroute_171497_426_0 tripinfo_171497_426_0 routing_171497_426_0" vType="pkw" speedFactor="1.16" vaporized=""/>
    <tripinfo id="104777_398_0" depart="25500.00" departLane="-4936412_0" departPos="4.40" departSpeed="0.00" departDelay="0.00" arrival="25524.00" arrivalLane="8716827#0_0" arrivalPos="109.12" arrivalSpeed="6.97" duration="24.00" routeLength="148.59" waitingTime="0.00" waitingCount="0" stopTime="0.00" timeLoss="4.45" rerouteNo="0" devices="vehroute_104777_398_0 tripinfo_104777_398_0 routing_104777_398_0" vType="pkw" speedFactor="0.86" vaporized=""/>
    <tripinfo id="131441_410_0" depart="25459.00" departLane="-297047309#0_0" departPos="4.40" departSpeed="0.00" departDelay="0.00" arrival="25528.00" arrivalLane="23283579#1_0" arrivalPos="22.22" arrivalSpeed="16.63" duration="69.00" routeLength="662.40" waitingTime="1.00" waitingCount="1" stopTime="0.00" timeLoss="14.36" rerouteNo="1" devices="vehroute_131441_410_0 tripinfo_131441_410_0 routing_131441_410_0" vType="pkw" speedFactor="1.22" vaporized=""/>
    <tripinfo id="166158_424_0" depart="25467.00" departLane="-297047309#0_0" departPos="4.40" departSpeed="0.00" departDelay="0.00" arrival="25535.00" arrivalLane="23283579#1_0" arrivalPos="22.22" arrivalSpeed="14.64" duration="68.00" routeLength="662.40" waitingTime="0.00" waitingCount="0" stopTime="0.00" timeLoss="9.23" rerouteNo="1" devices="vehroute_166158_424_0 tripinfo_166158_424_0 routing_166158_424_0" vType="pkw" speedFactor="1.13" vaporized=""/>
    <tripinfo id="155960_420_0" depart="25521.00" departLane="-23283472#2_0" departPos="4.40" departSpeed="0.00" departDelay="0.00" arrival="25562.00" arrivalLane="23283436_0" arrivalPos="65.76" arrivalSpeed="14.62" duration="41.00" routeLength="365.77" waitingTime="0.00" waitingCount="0" stopTime="0.00" timeLoss="7.60" rerouteNo="1" devices="vehroute_155960_420_0 tripinfo_155960_420_0 routing_155960_420_0" vType="pkw" speedFactor="1.05" vaporized=""/>
    <tripinfo id="140143_414_0" depart="25211.00" departLane="-28675510#11_0" departPos="4.40" departSpeed="0.00" departDelay="1.00" arrival="25564.00" arrivalLane="28675510#7_0" arrivalPos="257.94" arrivalSpeed="14.15" duration="353.00" routeLength="516.12" waitingTime="300.00" waitingCount="1" stopTime="0.00" timeLoss="317.24" rerouteNo="0" devices="vehroute_140143_414_0 tripinfo_140143_414_0 routing_140143_414_0" vType="pkw" speedFactor="1.04" vaporized=""/>
    <tripinfo id="133805_411_0" depart="25523.00" departLane="-23283579#1_0" departPos="4.40" departSpeed="0.00" departDelay="0.00" arrival="25577.00" arrivalLane="23840972_0" arrivalPos="97.66" arrivalSpeed="7.88" duration="54.00" routeLength="525.30" waitingTime="0.00" waitingCount="0" stopTime="0.00" timeLoss="8.48" rerouteNo="1" devices="vehroute_133805_411_0 tripinfo_133805_411_0 routing_133805_411_0" vType="pkw" speedFactor="1.04" vaporized=""/>
    <tripinfo id="156093_420_0" depart="25584.00" departLane="23283579#1_0" departPos="4.40" departSpeed="0.00" departDelay="0.00" arrival="25588.00" arrivalLane="23283579#1_0" arrivalPos="22.22" arrivalSpeed="9.20" duration="4.00" routeLength="17.82" waitingTime="0.00" waitingCount="0" stopTime="0.00" timeLoss="2.42" rerouteNo="1" devices="vehroute_156093_420_0 tripinfo_156093_420_0 routing_156093_420_0" vType="pkw" speedFactor="1.06" vaporized=""/>
    <tripinfo id="119014_405_0" depart="25580.00" departLane="132042183_0" departPos="4.40" departSpeed="0.00" departDelay="0.00" arrival="25596.00" arrivalLane="-23283472#2_0" arrivalPos="70.88" arrivalSpeed="8.41" duration="16.00" routeLength="103.30" waitingTime="0.00" waitingCount="0" stopTime="0.00" timeLoss="3.13" rerouteNo="0" devices="vehroute_119014_405_0 tripinfo_119014_405_0 routing_119014_405_0" vType="pkw" speedFactor="1.03" vaporized=""/>
    <tripinfo id="160078_421_0" depart="25575.00" departLane="-4936412_0" departPos="4.40" departSpeed="0.00" departDelay="0.00" arrival="25599.00" arrivalLane="8716827#0_0" arrivalPos="109.12" arrivalSpeed="6.59" duration="24.00" routeLength="148.59" waitingTime="0.00" waitingCount="0" stopTime="0.00" timeLoss="5.68" rerouteNo="0" devices="vehroute_160078_421_0 tripinfo_160078_421_0 routing_160078_421_0" vType="pkw" speedFactor="0.90" vaporized=""/>
    <tripinfo id="165190_423_0" depart="25427.00" departLane="-186623965#18_0" departPos="4.40" departSpeed="0.00" departDelay="0.00" arrival="25603.00" arrivalLane="-23840935_0" arrivalPos="84.89" arrivalSpeed="7.00" duration="176.00" routeLength="1299.98" waitingTime="0.00" waitingCount="0" stopTime="0.00" timeLoss="19.46" rerouteNo="1" devices="vehroute_165190_423_0 tripinfo_165190_423_0 routing_165190_423_0" vType="pkw" speedFactor="0.92" vaporized=""/>
    <tripinfo id="154649_420_0" depart="25466.00" departLane="22959550#3_0" departPos="4.40" departSpeed="0.00" departDelay="0.00" arrival="25608.00" arrivalLane="42925825#0_0" arrivalPos="254.17" arrivalSpeed="11.94" duration="142.00" routeLength="1354.02" waitingTime="0.00" waitingCount="0" stopTime="0.00" timeLoss="12.60" rerouteNo="1" devices="vehroute_154649_420_0 tripinfo_154649_420_0 routing_154649_420_0" vType="pkw" speedFactor="0.93" vaporized=""/>
    <tripinfo id="163913_422_0" depart="25581.00" departLane="-4936412_0" departPos="4.40" departSpeed="0.00" departDelay="0.00" arrival="25608.00" arrivalLane="8716827#0_0" arrivalPos="109.12" arrivalSpeed="7.33" duration="27.00" routeLength="148.59" waitingTime="3.00" waitingCount="1" stopTime="0.00" timeLoss="10.79" rerouteNo="0" devices="vehroute_163913_422_0 tripinfo_163913_422_0 routing_163913_422_0" vType="pkw" speedFactor="1.03" vaporized=""/>
    <tripinfo id="102131_396_0" depart="25592.00" departLane="-4936412_0" departPos="4.40" departSpeed="0.00" departDelay="0.00" arrival="25611.00" arrivalLane="8716827#0_0" arrivalPos="109.12" arrivalSpeed="8.82" duration="19.00" routeLength="148.59" waitingTime="0.00" waitingCount="0" stopTime="0.00" timeLoss="4.22" rerouteNo="0" devices="vehroute_102131_396_0 tripinfo_102131_396_0 routing_102131_396_0" vType="pkw" speedFactor="1.13" vaporized=""/>