<?xml version="1.0" encoding="UTF-8"?>

<!-- generated on 2025-05-20 17:37:32 by Eclipse SUMO sumo Version 1.20.0
<configuration xmlns:xsi="http://www.w3.org/2001/XMLSchema-instance" xsi:noNamespaceSchemaLocation="http://sumo.dlr.de/xsd/sumoConfiguration.xsd">

    <input>
        <net-file value="C:\Users\skang\Desktop\최석환\강의\무인항공딥러닝개론\RESCO-main\resco_benchmark\environments/cologne8/cologne8.net.xml"/>
        <route-files value="C:\Users\skang\Desktop\최석환\강의\무인항공딥러닝개론\RESCO-main\resco_benchmark\environments/cologne8/cologne8.rou.xml"/>
    </input>

    <output>
        <tripinfo-output value="C:\Users\skang\Desktop\최석환\강의\무인항공딥러닝개론\results\MPLight-tr0-cologne8-0-mplight-pressure\tripinfo_76.xml"/>
        <tripinfo-output.write-unfinished value="true"/>
        <vehroute-output value="C:\Users\skang\Desktop\최석환\강의\무인항공딥러닝개론\results\MPLight-tr0-cologne8-0-mplight-pressure\route_76.xml"/>
        <vehroute-output.sorted value="True"/>
        <vehroute-output.write-unfinished value="True"/>
        <collision-output value="C:\Users\skang\Desktop\최석환\강의\무인항공딥러닝개론\results\MPLight-tr0-cologne8-0-mplight-pressure\coll_76.xml"/>
        <statistic-output value="C:\Users\skang\Desktop\최석환\강의\무인항공딥러닝개론\results\MPLight-tr0-cologne8-0-mplight-pressure\stats_76.xml"/>
    </output>

    <time>
        <begin value="25200"/>
        <end value="28800"/>
    </time>

    <processing>
        <time-to-teleport value="-1"/>
    </processing>

    <report>
        <no-warnings value="True"/>
        <no-step-log value="True"/>
    </report>

    <traci_server>
        <remote-port value="57492"/>
    </traci_server>

    <random_number>
        <random value="true"/>
    </random_number>

</configuration>
-->

<tripinfos xmlns:xsi="http://www.w3.org/2001/XMLSchema-instance" xsi:noNamespaceSchemaLocation="http://sumo.dlr.de/xsd/tripinfo_file.xsd">
    <tripinfo id="142890_415_0" depart="25218.00" departLane="-23283579#1_0" departPos="4.40" departSpeed="0.00" departDelay="0.00" arrival="25227.00" arrivalLane="23283579#1_0" arrivalPos="22.22" arrivalSpeed="11.55" duration="9.00" routeLength="44.72" waitingTime="0.00" waitingCount="0" stopTime="0.00" timeLoss="5.15" rerouteNo="0" devices="vehroute_142890_415_0 tripinfo_142890_415_0 routing_142890_415_0" vType="pkw" speedFactor="1.01" vaporized=""/>
    <tripinfo id="155570_420_0" depart="25200.00" departLane="-28675510#11_0" departPos="4.40" departSpeed="0.00" departDelay="0.00" arrival="25246.00" arrivalLane="28675510#7_0" arrivalPos="257.94" arrivalSpeed="12.47" duration="46.00" routeLength="516.12" waitingTime="0.00" waitingCount="0" stopTime="0.00" timeLoss="5.60" rerouteNo="0" devices="vehroute_155570_420_0 tripinfo_155570_420_0 routing_155570_420_0" vType="pkw" speedFactor="0.92" vaporized=""/>
    <tripinfo id="137312_412_0" depart="25200.00" departLane="-23283579#1_0" departPos="4.40" departSpeed="0.00" departDelay="0.00" arrival="25259.00" arrivalLane="23283436_0" arrivalPos="65.76" arrivalSpeed="14.25" duration="59.00" routeLength="404.67" waitingTime="19.00" waitingCount="1" stopTime="0.00" timeLoss="30.66" rerouteNo="1" devices="vehroute_137312_412_0 tripinfo_137312_412_0 routing_137312_412_0" vType="pkw" speedFactor="1.04" vaporized=""/>
    <tripinfo id="134603_411_0" depart="25206.00" departLane="-28675510#11_0" departPos="4.40" departSpeed="0.00" departDelay="0.00" arrival="25259.00" arrivalLane="28675510#7_0" arrivalPos="257.94" arrivalSpeed="11.08" duration="53.00" routeLength="516.12" waitingTime="0.00" waitingCount="0" stopTime="0.00" timeLoss="6.59" rerouteNo="0" devices="vehroute_134603_411_0 tripinfo_134603_411_0 routing_134603_411_0" vType="pkw" speedFactor="0.81" vaporized=""/>
    <tripinfo id="140143_414_0" depart="25211.00" departLane="-28675510#11_0" departPos="4.40" departSpeed="0.00" departDelay="1.00" arrival="25261.00" arrivalLane="28675510#7_0" arrivalPos="257.94" arrivalSpeed="12.49" duration="50.00" routeLength="516.12" waitingTime="0.00" waitingCount="0" stopTime="0.00" timeLoss="10.28" rerouteNo="0" devices="vehroute_140143_414_0 tripinfo_140143_414_0 routing_140143_414_0" vType="pkw" speedFactor="0.96" vaporized=""/>
    <tripinfo id="137959_412_0" depart="25209.00" departLane="-186623965#18_0" departPos="4.40" departSpeed="0.00" departDelay="0.00" arrival="25262.00" arrivalLane="-22917421#4_0" arrivalPos="96.26" arrivalSpeed="6.78" duration="53.00" routeLength="263.02" waitingTime="16.00" waitingCount="1" stopTime="0.00" timeLoss="25.03" rerouteNo="0" devices="vehroute_137959_412_0 tripinfo_137959_412_0 routing_137959_412_0" vType="pkw" speedFactor="0.87" vaporized=""/>
    <tripinfo id="138070_412_0" depart="25229.00" departLane="22917421#3_0" departPos="4.40" departSpeed="0.00" departDelay="0.00" arrival="25268.00" arrivalLane="186623965#17_0" arrivalPos="143.63" arrivalSpeed="13.29" duration="39.00" routeLength="257.42" waitingTime="8.00" waitingCount="1" stopTime="0.00" timeLoss="15.12" rerouteNo="0" devices="vehroute_138070_412_0 tripinfo_138070_412_0 routing_138070_412_0" vType="pkw" speedFactor="1.01" vaporized=""/>
    <tripinfo id="153496_420_0" depart="25232.00" departLane="22917421#3_0" departPos="4.40" departSpeed="0.00" departDelay="0.00" arrival="25270.00" arrivalLane="186623965#17_0" arrivalPos="143.63" arrivalSpeed="13.29" duration="38.00" routeLength="257.42" waitingTime="5.00" waitingCount="1" stopTime="0.00" timeLoss="13.44" rerouteNo="0" devices="vehroute_153496_420_0 tripinfo_153496_420_0 routing_153496_420_0" vType="pkw" speedFactor="0.97" vaporized=""/>
    <tripinfo id="155353_420_0" depart="25235.00" departLane="22917421#3_0" departPos="4.40" departSpeed="0.00" departDelay="1.00" arrival="25271.00" arrivalLane="186623965#17_0" arrivalPos="143.63" arrivalSpeed="14.69" duration="36.00" routeLength="257.42" waitingTime="6.00" waitingCount="1" stopTime="0.00" timeLoss="13.86" rerouteNo="0" devices="vehroute_155353_420_0 tripinfo_155353_420_0 routing_155353_420_0" vType="pkw" speedFactor="1.06" vaporized=""/>
    <tripinfo id="161942_421_0" depart="25233.00" departLane="-42925825#2_0" departPos="4.40" departSpeed="0.00" departDelay="0.00" arrival="25273.00" arrivalLane="42925825#0_0" arrivalPos="254.17" arrivalSpeed="15.28" duration="40.00" routeLength="508.64" waitingTime="0.00" waitingCount="0" stopTime="0.00" timeLoss="6.62" rerouteNo="0" devices="vehroute_161942_421_0 tripinfo_161942_421_0 routing_161942_421_0" vType="pkw" speedFactor="1.11" vaporized=""/>
    <tripinfo id="135663_411_0" depart="25216.00" departLane="-28675510#11_0" departPos="4.40" departSpeed="0.00" departDelay="2.00" arrival="25274.00" arrivalLane="28675510#7_0" arrivalPos="257.94" arrivalSpeed="11.76" duration="58.00" routeLength="516.12" waitingTime="4.00" waitingCount="2" stopTime="0.00" timeLoss="14.60" rerouteNo="0" devices="vehroute_135663_411_0 tripinfo_135663_411_0 routing_135663_411_0" vType="pkw" speedFactor="0.87" vaporized=""/>
    <tripinfo id="118788_405_0" depart="25247.00" departLane="22917421#3_0" departPos="4.40" departSpeed="0.00" departDelay="0.00" arrival="25276.00" arrivalLane="186623965#17_0" arrivalPos="143.63" arrivalSpeed="15.15" duration="29.00" routeLength="257.42" waitingTime="0.00" waitingCount="0" stopTime="0.00" timeLoss="7.19" rerouteNo="0" devices="vehroute_118788_405_0 tripinfo_118788_405_0 routing_118788_405_0" vType="pkw" speedFactor="1.10" vaporized=""/>
    <tripinfo id="144617_416_0" depart="25256.00" departLane="22917421#3_0" departPos="4.40" departSpeed="0.00" departDelay="0.00" arrival="25281.00" arrivalLane="186623965#17_0" arrivalPos="143.63" arrivalSpeed="14.74" duration="25.00" routeLength="257.42" waitingTime="0.00" waitingCount="0" stopTime="0.00" timeLoss="3.76" rerouteNo="0" devices="vehroute_144617_416_0 tripinfo_144617_416_0 routing_144617_416_0" vType="pkw" speedFactor="1.09" vaporized=""/>
    <tripinfo id="149045_417_0" depart="25220.00" departLane="-28675510#11_0" departPos="4.40" departSpeed="0.00" departDelay="3.00" arrival="25296.00" arrivalLane="28675510#7_0" arrivalPos="257.94" arrivalSpeed="13.05" duration="76.00" routeLength="516.12" waitingTime="21.00" waitingCount="2" stopTime="0.00" timeLoss="36.46" rerouteNo="0" devices="vehroute_149045_417_0 tripinfo_149045_417_0 routing_149045_417_0" vType="pkw" speedFactor="0.95" vaporized=""/>
    <tripinfo id="111571_401_0" depart="25267.00" departLane="-353069169#0_0" departPos="4.40" departSpeed="0.00" departDelay="0.00" arrival="25297.00" arrivalLane="24487264_0" arrivalPos="166.35" arrivalSpeed="11.89" duration="30.00" routeLength="286.19" waitingTime="0.00" waitingCount="0" stopTime="0.00" timeLoss="5.54" rerouteNo="1" devices="vehroute_111571_401_0 tripinfo_111571_401_0 routing_111571_401_0" vType="pkw" speedFactor="0.90" vaporized=""/>
    <tripinfo id="162497_421_0" depart="25273.00" departLane="22917421#3_0" departPos="4.40" departSpeed="0.00" departDelay="0.00" arrival="25303.00" arrivalLane="186623965#17_0" arrivalPos="143.63" arrivalSpeed="12.20" duration="30.00" routeLength="257.42" waitingTime="0.00" waitingCount="0" stopTime="0.00" timeLoss="4.20" rerouteNo="0" devices="vehroute_162497_421_0 tripinfo_162497_421_0 routing_162497_421_0" vType="pkw" speedFactor="0.90" vaporized=""/>
    <tripinfo id="150593_418_0" depart="25297.00" departLane="22959552#0_0" departPos="4.40" departSpeed="0.00" departDelay="0.00" arrival="25310.00" arrivalLane="22959552#0_0" arrivalPos="91.39" arrivalSpeed="8.42" duration="13.00" routeLength="86.99" waitingTime="0.00" waitingCount="0" stopTime="0.00" timeLoss="2.05" rerouteNo="1" devices="vehroute_150593_418_0 tripinfo_150593_418_0 routing_150593_418_0" vType="pkw" speedFactor="1.01" vaporized=""/>
    <tripinfo id="163799_422_0" depart="25257.00" departLane="-186623965#18_0" departPos="4.40" departSpeed="0.00" departDelay="2.00" arrival="25312.00" arrivalLane="-22917421#4_0" arrivalPos="96.26" arrivalSpeed="7.63" duration="55.00" routeLength="263.02" waitingTime="13.00" waitingCount="2" stopTime="0.00" timeLoss="28.22" rerouteNo="0" devices="vehroute_163799_422_0 tripinfo_163799_422_0 routing_163799_422_0" vType="pkw" speedFactor="0.93" vaporized=""/>
    <tripinfo id="163043_422_0" depart="25214.00" departLane="-28675510#11_0" departPos="4.40" departSpeed="0.00" departDelay="2.00" arrival="25314.00" arrivalLane="8716827#0_0" arrivalPos="109.12" arrivalSpeed="8.27" duration="100.00" routeLength="1154.53" waitingTime="0.00" waitingCount="0" stopTime="0.00" timeLoss="12.33" rerouteNo="1" devices="vehroute_163043_422_0 tripinfo_163043_422_0 routing_163043_422_0" vType="pkw" speedFactor="1.02" vaporized=""/>
    <tripinfo id="152801_419_0" depart="25299.00" departLane="-297047307_0" departPos="4.40" departSpeed="0.00" departDelay="0.00" arrival="25334.00" arrivalLane="297047309#0_0" arrivalPos="91.17" arrivalSpeed="14.90" duration="35.00" routeLength="439.92" waitingTime="0.00" waitingCount="0" stopTime="0.00" timeLoss="5.33" rerouteNo="1" devices="vehroute_152801_419_0 tripinfo_152801_419_0 routing_152801_419_0" vType="pkw" speedFactor="1.09" vaporized=""/>
    <tripinfo id="158885_421_0" depart="25220.00" departLane="22917421#3_0" departPos="4.40" departSpeed="0.00" departDelay="0.00" arrival="25336.00" arrivalLane="28675510#7_0" arrivalPos="257.94" arrivalSpeed="12.39" duration="116.00" routeLength="937.03" waitingTime="0.00" waitingCount="0" stopTime="0.00" timeLoss="9.99" rerouteNo="1" devices="vehroute_158885_421_0 tripinfo_158885_421_0 routing_158885_421_0" vType="pkw" speedFactor="0.94" vaporized=""/>
    <tripinfo id="171184_426_0" depart="25326.00" departLane="133081987#0_0" departPos="4.40" departSpeed="0.00" departDelay="0.00" arrival="25343.00" arrivalLane="23283436_0" arrivalPos="65.76" arrivalSpeed="14.57" duration="17.00" routeLength="154.99" waitingTime="0.00" waitingCount="0" stopTime="0.00" timeLoss="6.35" rerouteNo="0" devices="vehroute_171184_426_0 tripinfo_171184_426_0 routing_171184_426_0" vType="pkw" speedFactor="1.10" vaporized=""/>
    <tripinfo id="145512_416_0" depart="25308.00" departLane="22917421#3_0" departPos="4.40" departSpeed="0.00" departDelay="0.00" arrival="25349.00" arrivalLane="186623965#17_0" arrivalPos="143.63" arrivalSpeed="13.43" duration="41.00" routeLength="257.42" waitingTime="9.00" waitingCount="1" stopTime="0.00" timeLoss="16.13" rerouteNo="0" devices="vehroute_145512_416_0 tripinfo_145512_416_0 routing_145512_416_0" vType="pkw" speedFactor="0.97" vaporized=""/>
    <tripinfo id="76230_386_0" depart="25204.00" departLane="-23283579#1_0" departPos="4.40" departSpeed="0.00" departDelay="0.00" arrival="25359.00" arrivalLane="297047309#0_0" arrivalPos="91.17" arrivalSpeed="14.38" duration="155.00" routeLength="656.20" waitingTime="73.00" waitingCount="2" stopTime="0.00" timeLoss="91.28" rerouteNo="1" devices="vehroute_76230_386_0 tripinfo_76230_386_0 routing_76230_386_0" vType="pkw" speedFactor="1.04" vaporized=""/>
    <tripinfo id="110248_401_0" depart="25206.00" departLane="-23283579#1_0" departPos="4.40" departSpeed="0.00" departDelay="0.00" arrival="25360.00" arrivalLane="297047309#0_0" arrivalPos="91.17" arrivalSpeed="14.03" duration="154.00" routeLength="656.20" waitingTime="70.00" waitingCount="2" stopTime="0.00" timeLoss="91.76" rerouteNo="1" devices="vehroute_110248_401_0 tripinfo_110248_401_0 routing_110248_401_0" vType="pkw" speedFactor="1.05" vaporized=""/>
    <tripinfo id="144017_416_0" depart="25348.00" departLane="-353069169#0_0" departPos="4.40" departSpeed="0.00" departDelay="0.00" arrival="25367.00" arrivalLane="323416262_0" arrivalPos="87.54" arrivalSpeed="14.62" duration="19.00" routeLength="175.35" waitingTime="0.00" waitingCount="0" stopTime="0.00" timeLoss="6.61" rerouteNo="0" devices="vehroute_144017_416_0 tripinfo_144017_416_0 routing_144017_416_0" vType="pkw" speedFactor="1.10" vaporized=""/>
    <tripinfo id="166783_424_0" depart="25349.00" departLane="22917421#3_0" departPos="4.40" departSpeed="0.00" departDelay="0.00" arrival="25379.00" arrivalLane="186623965#17_0" arrivalPos="143.63" arrivalSpeed="12.33" duration="30.00" routeLength="257.42" waitingTime="0.00" waitingCount="0" stopTime="0.00" timeLoss="3.74" rerouteNo="0" devices="vehroute_166783_424_0 tripinfo_166783_424_0 routing_166783_424_0" vType="pkw" speedFactor="0.90" vaporized=""/>
    <tripinfo id="108769_400_0" depart="25356.00" departLane="-186623965#18_0" departPos="4.40" departSpeed="0.00" departDelay="0.00" arrival="25389.00" arrivalLane="-22917421#4_0" arrivalPos="96.26" arrivalSpeed="7.31" duration="33.00" routeLength="263.02" waitingTime="0.00" waitingCount="0" stopTime="0.00" timeLoss="8.99" rerouteNo="0" devices="vehroute_108769_400_0 tripinfo_108769_400_0 routing_108769_400_0" vType="pkw" speedFactor="1.02" vaporized=""/>
    <tripinfo id="96268_394_0" depart="25369.00" departLane="-186623965#18_0" departPos="4.40" departSpeed="0.00" departDelay="0.00" arrival="25398.00" arrivalLane="-22917421#4_0" arrivalPos="96.26" arrivalSpeed="8.04" duration="29.00" routeLength="263.02" waitingTime="0.00" waitingCount="0" stopTime="0.00" timeLoss="5.04" rerouteNo="0" devices="vehroute_96268_394_0 tripinfo_96268_394_0 routing_96268_394_0" vType="pkw" speedFactor="1.04" vaporized=""/>
    <tripinfo id="164277_422_0" depart="25343.00" departLane="23285888#0_0" departPos="4.40" departSpeed="0.00" departDelay="0.00" arrival="25400.00" arrivalLane="297047309#0_0" arrivalPos="91.17" arrivalSpeed="14.65" duration="57.00" routeLength="518.80" waitingTime="0.00" waitingCount="0" stopTime="0.00" timeLoss="6.04" rerouteNo="1" devices="vehroute_164277_422_0 tripinfo_164277_422_0 routing_164277_422_0" vType="pkw" speedFactor="1.06" vaporized=""/>
    <tripinfo id="175131_428_0" depart="25328.00" departLane="23840713#2_0" departPos="4.40" departSpeed="0.00" departDelay="0.00" arrival="25421.00" arrivalLane="42925825#0_0" arrivalPos="254.17" arrivalSpeed="17.77" duration="93.00" routeLength="1254.72" waitingTime="0.00" waitingCount="0" stopTime="0.00" timeLoss="12.00" rerouteNo="1" devices="vehroute_175131_428_0 tripinfo_175131_428_0 routing_175131_428_0" vType="pkw" speedFactor="1.34" vaporized=""/>
    <tripinfo id="174717_427_0" depart="25373.00" departLane="22917421#3_0" departPos="4.40" departSpeed="0.00" departDelay="0.00" arrival="25424.00" arrivalLane="186623965#17_0" arrivalPos="143.63" arrivalSpeed="13.47" duration="51.00" routeLength="257.42" waitingTime="19.00" waitingCount="1" stopTime="0.00" timeLoss="27.07" rerouteNo="0" devices="vehroute_174717_427_0 tripinfo_174717_427_0 routing_174717_427_0" vType="pkw" speedFactor="1.00" vaporized=""/>
    <tripinfo id="142307_415_0" depart="25375.00" departLane="22917421#3_0" departPos="4.40" departSpeed="0.00" departDelay="0.00" arrival="25426.00" arrivalLane="186623965#17_0" arrivalPos="143.63" arrivalSpeed="13.27" duration="51.00" routeLength="257.42" waitingTime="19.00" waitingCount="1" stopTime="0.00" timeLoss="26.97" rerouteNo="0" devices="vehroute_142307_415_0 tripinfo_142307_415_0 routing_142307_415_0" vType="pkw" speedFactor="1.00" vaporized=""/>
    <tripinfo id="157954_421_0" depart="25389.00" departLane="22917421#3_0" departPos="4.40" departSpeed="0.00" departDelay="1.00" arrival="25427.00" arrivalLane="186623965#17_0" arrivalPos="143.63" arrivalSpeed="12.87" duration="38.00" routeLength="257.42" waitingTime="6.00" waitingCount="1" stopTime="0.00" timeLoss="15.08" rerouteNo="0" devices="vehroute_157954_421_0 tripinfo_157954_421_0 routing_157954_421_0" vType="pkw" speedFactor="1.01" vaporized=""/>
    <tripinfo id="83049_390_0" depart="25408.00" departLane="-4936412_0" departPos="4.40" departSpeed="0.00" departDelay="0.00" arrival="25428.00" arrivalLane="8716827#0_0" arrivalPos="109.12" arrivalSpeed="8.59" duration="20.00" routeLength="148.59" waitingTime="0.00" waitingCount="0" stopTime="0.00" timeLoss="4.28" rerouteNo="0" devices="vehroute_83049_390_0 tripinfo_83049_390_0 routing_83049_390_0" vType="pkw" speedFactor="1.04" vaporized=""/>
    <tripinfo id="67978_381_0" depart="25412.00" departLane="-4936412_0" departPos="4.40" departSpeed="0.00" departDelay="0.00" arrival="25433.00" arrivalLane="8716827#0_0" arrivalPos="109.12" arrivalSpeed="7.58" duration="21.00" routeLength="148.59" waitingTime="0.00" waitingCount="0" stopTime="0.00" timeLoss="3.99" rerouteNo="0" devices="vehroute_67978_381_0 tripinfo_67978_381_0 routing_67978_381_0" vType="pkw" speedFactor="0.98" vaporized=""/>
    <tripinfo id="114597_403_0" depart="25201.00" departLane="22917421#3_0" departPos="4.40" departSpeed="0.00" departDelay="0.00" arrival="25440.00" arrivalLane="-186623965#14_0" arrivalPos="159.69" arrivalSpeed="12.07" duration="239.00" routeLength="476.78" waitingTime="184.00" waitingCount="1" stopTime="0.00" timeLoss="194.76" rerouteNo="1" devices="vehroute_114597_403_0 tripinfo_114597_403_0 routing_114597_403_0" vType="pkw" speedFactor="0.89" vaporized=""/>
    <tripinfo id="164388_422_0" depart="25405.00" departLane="-186623965#18_0" departPos="4.40" departSpeed="0.00" departDelay="0.00" arrival="25440.00" arrivalLane="-22917421#4_0" arrivalPos="96.26" arrivalSpeed="8.32" duration="35.00" routeLength="263.02" waitingTime="1.00" waitingCount="1" stopTime="0.00" timeLoss="10.41" rerouteNo="0" devices="vehroute_164388_422_0 tripinfo_164388_422_0 routing_164388_422_0" vType="pkw" speedFactor="1.00" vaporized=""/>
    <tripinfo id="119181_405_0" depart="25226.00" departLane="186623965#9_0" departPos="4.40" departSpeed="0.00" departDelay="0.00" arrival="25444.00" arrivalLane="42925825#0_0" arrivalPos="254.17" arrivalSpeed="15.33" duration="218.00" routeLength="418.48" waitingTime="182.00" waitingCount="1" stopTime="0.00" timeLoss="191.24" rerouteNo="0" devices="vehroute_119181_405_0 tripinfo_119181_405_0 routing_119181_405_0" vType="pkw" speedFactor="1.13" vaporized=""/>
    <tripinfo id="118988_405_0" depart="25416.00" departLane="-186623965#18_0" departPos="4.40" departSpeed="0.00" departDelay="1.00" arrival="25445.00" arrivalLane="-22917421#4_0" arrivalPos="96.26" arrivalSpeed="7.73" duration="29.00" routeLength="263.02" waitingTime="0.00" waitingCount="0" stopTime="0.00" timeLoss="5.04" rerouteNo="0" devices="vehroute_118988_405_0 tripinfo_118988_405_0 routing_118988_405_0" vType="pkw" speedFactor="1.01" vaporized=""/>
    <tripinfo id="154646_420_0" depart="25419.00" departLane="25166682#0_0" departPos="4.40" departSpeed="0.00" departDelay="0.00" arrival="25446.00" arrivalLane="323450710#0_0" arrivalPos="95.59" arrivalSpeed="12.48" duration="27.00" routeLength="289.69" waitingTime="0.00" waitingCount="0" stopTime="0.00" timeLoss="5.65" rerouteNo="1" devices="vehroute_154646_420_0 tripinfo_154646_420_0 routing_154646_420_0" vType="pkw" speedFactor="0.98" vaporized=""/>
    <tripinfo id="133416_410_0" depart="25228.00" departLane="186623965#9_0" departPos="4.40" departSpeed="0.00" departDelay="0.00" arrival="25448.00" arrivalLane="42925825#0_0" arrivalPos="254.17" arrivalSpeed="14.36" duration="220.00" routeLength="418.48" waitingTime="179.00" waitingCount="1" stopTime="0.00" timeLoss="190.49" rerouteNo="0" devices="vehroute_133416_410_0 tripinfo_133416_410_0 routing_133416_410_0" vType="pkw" speedFactor="1.05" vaporized=""/>
    <tripinfo id="148419_417_0" depart="25363.00" departLane="133081987#3_0" departPos="4.40" departSpeed="0.00" departDelay="0.00" arrival="25448.00" arrivalLane="297047309#0_0" arrivalPos="91.17" arrivalSpeed="13.03" duration="85.00" routeLength="785.73" waitingTime="0.00" waitingCount="0" stopTime="0.00" timeLoss="8.54" rerouteNo="1" devices="vehroute_148419_417_0 tripinfo_148419_417_0 routing_148419_417_0" vType="pkw" speedFactor="0.98" vaporized=""/>
    <tripinfo id="154420_420_0" depart="25411.00" departLane="22917421#3_0" departPos="4.40" departSpeed="0.00" departDelay="0.00" arrival="25448.00" arrivalLane="186623965#17_0" arrivalPos="143.63" arrivalSpeed="12.61" duration="37.00" routeLength="257.42" waitingTime="6.00" waitingCount="1" stopTime="0.00" timeLoss="12.03" rerouteNo="0" devices="vehroute_154420_420_0 tripinfo_154420_420_0 routing_154420_420_0" vType="pkw" speedFactor="0.94" vaporized=""/>
    <tripinfo id="113370_402_0" depart="25249.00" departLane="186623965#9_0" departPos="4.40" departSpeed="0.00" departDelay="0.00" arrival="25451.00" arrivalLane="42925825#0_0" arrivalPos="254.17" arrivalSpeed="11.64" duration="202.00" routeLength="418.48" waitingTime="159.00" waitingCount="1" stopTime="0.00" timeLoss="169.31" rerouteNo="0" devices="vehroute_113370_402_0 tripinfo_113370_402_0 routing_113370_402_0" vType="pkw" speedFactor="0.93" vaporized=""/>
    <tripinfo id="141355_415_0" depart="25232.00" departLane="-186623965#18_0" departPos="4.40" departSpeed="0.00" departDelay="0.00" arrival="25455.00" arrivalLane="42925825#0_0" arrivalPos="254.17" arrivalSpeed="12.60" duration="223.00" routeLength="625.62" waitingTime="160.00" waitingCount="2" stopTime="0.00" timeLoss="174.76" rerouteNo="1" devices="vehroute_141355_415_0 tripinfo_141355_415_0 routing_141355_415_0" vType="pkw" speedFactor="0.95" vaporized=""/>
    <tripinfo id="150411_418_0" depart="25329.00" departLane="22917421#3_0" departPos="4.40" departSpeed="0.00" departDelay="0.00" arrival="25456.00" arrivalLane="23840972_0" arrivalPos="97.66" arrivalSpeed="7.77" duration="127.00" routeLength="954.69" waitingTime="10.00" waitingCount="1" stopTime="0.00" timeLoss="25.34" rerouteNo="1" devices="vehroute_150411_418_0 tripinfo_150411_418_0 routing_150411_418_0" vType="pkw" speedFactor="1.07" vaporized=""/>
    <tripinfo id="122677_406_0" depart="25441.00" departLane="-4936412_0" departPos="4.40" departSpeed="0.00" departDelay="0.00" arrival="25462.00" arrivalLane="8716827#0_0" arrivalPos="109.12" arrivalSpeed="7.91" duration="21.00" routeLength="148.59" waitingTime="0.00" waitingCount="0" stopTime="0.00" timeLoss="4.14" rerouteNo="0" devices="vehroute_122677_406_0 tripinfo_122677_406_0 routing_122677_406_0" vType="pkw" speedFactor="0.98" vaporized=""/>
    <tripinfo id="131071_409_0" depart="25236.00" departLane="-186623965#18_0" departPos="4.40" departSpeed="0.00" departDelay="0.00" arrival="25465.00" arrivalLane="42925825#0_0" arrivalPos="254.17" arrivalSpeed="13.39" duration="229.00" routeLength="625.62" waitingTime="170.00" waitingCount="2" stopTime="0.00" timeLoss="185.77" rerouteNo="1" devices="vehroute_131071_409_0 tripinfo_131071_409_0 routing_131071_409_0" vType="pkw" speedFactor="1.05" vaporized=""/>
    <tripinfo id="126900_407_0" depart="25239.00" departLane="-186623965#18_0" departPos="4.40" departSpeed="0.00" departDelay="0.00" arrival="25467.00" arrivalLane="42925825#0_0" arrivalPos="254.17" arrivalSpeed="13.33" duration="228.00" routeLength="625.62" waitingTime="162.00" waitingCount="3" stopTime="0.00" timeLoss="183.96" rerouteNo="1" devices="vehroute_126900_407_0 tripinfo_126900_407_0 routing_126900_407_0" vType="pkw" speedFactor="1.03" vaporized=""/>
    <tripinfo id="140525_414_0" depart="25221.00" departLane="186623965#9_0" departPos="4.40" departSpeed="0.00" departDelay="0.00" arrival="25468.00" arrivalLane="186623965#17_0" arrivalPos="143.63" arrivalSpeed="12.42" duration="247.00" routeLength="527.61" waitingTime="195.00" waitingCount="2" stopTime="0.00" timeLoss="208.00" rerouteNo="1" devices="vehroute_140525_414_0 tripinfo_140525_414_0 routing_140525_414_0" vType="pkw" speedFactor="0.98" vaporized=""/>
    <tripinfo id="126698_407_0" depart="25241.00" departLane="-186623965#18_0" departPos="4.40" departSpeed="0.00" departDelay="0.00" arrival="25469.00" arrivalLane="42925825#0_0" arrivalPos="254.17" arrivalSpeed="15.38" duration="228.00" routeLength="625.62" waitingTime="160.00" waitingCount="3" stopTime="0.00" timeLoss="186.45" rerouteNo="1" devices="vehroute_126698_407_0 tripinfo_126698_407_0 routing_126698_407_0" vType="pkw" speedFactor="1.11" vaporized=""/>
    <tripinfo id="138639_413_0" depart="25314.00" departLane="186623965#9_0" departPos="4.40" departSpeed="0.00" departDelay="0.00" arrival="25470.00" arrivalLane="186623965#17_1" arrivalPos="143.63" arrivalSpeed="10.98" duration="156.00" routeLength="527.61" waitingTime="98.00" waitingCount="2" stopTime="0.00" timeLoss="111.88" rerouteNo="1" devices="vehroute_138639_413_0 tripinfo_138639_413_0 routing_138639_413_0" vType="pkw" speedFactor="0.87" vaporized=""/>
    <tripinfo id="166238_424_0" depart="25451.00" departLane="42925825#0_0" departPos="4.40" departSpeed="0.00" departDelay="2.00" arrival="25472.00" arrivalLane="42925825#0_0" arrivalPos="254.17" arrivalSpeed="14.35" duration="21.00" routeLength="249.77" waitingTime="0.00" waitingCount="0" stopTime="0.00" timeLoss="3.89" rerouteNo="1" devices="vehroute_166238_424_0 tripinfo_166238_424_0 routing_166238_424_0" vType="pkw" speedFactor="1.07" vaporized=""/>
    <tripinfo id="159622_421_0" depart="25254.00" departLane="-186623965#18_0" departPos="4.40" departSpeed="0.00" departDelay="3.00" arrival="25477.00" arrivalLane="42925825#0_0" arrivalPos="254.17" arrivalSpeed="12.36" duration="223.00" routeLength="625.62" waitingTime="148.00" waitingCount="4" stopTime="0.00" timeLoss="176.55" rerouteNo="1" devices="vehroute_159622_421_0 tripinfo_159622_421_0 routing_159622_421_0" vType="pkw" speedFactor="0.98" vaporized=""/>
    <tripinfo id="171631_426_0" depart="25415.00" departLane="23283470#0_0" departPos="4.40" departSpeed="0.00" departDelay="0.00" arrival="25478.00" arrivalLane="23283579#1_0" arrivalPos="22.22" arrivalSpeed="12.92" duration="63.00" routeLength="531.05" waitingTime="0.00" waitingCount="0" stopTime="0.00" timeLoss="9.10" rerouteNo="1" devices="vehroute_171631_426_0 tripinfo_171631_426_0 routing_171631_426_0" vType="pkw" speedFactor="1.01" vaporized=""/>
    <tripinfo id="139487_413_0" depart="25456.00" departLane="-4936412_0" departPos="4.40" departSpeed="0.00" departDelay="0.00" arrival="25478.00" arrivalLane="8716827#0_0" arrivalPos="109.12" arrivalSpeed="6.75" duration="22.00" routeLength="148.59" waitingTime="0.00" waitingCount="0" stopTime="0.00" timeLoss="4.33" rerouteNo="0" devices="vehroute_139487_413_0 tripinfo_139487_413_0 routing_139487_413_0" vType="pkw" speedFactor="0.92" vaporized=""/>
    <tripinfo id="161216_421_0" depart="25251.00" departLane="-186623965#18_0" departPos="4.40" departSpeed="0.00" departDelay="3.00" arrival="25479.00" arrivalLane="42925825#0_0" arrivalPos="254.17" arrivalSpeed="12.28" duration="228.00" routeLength="625.62" waitingTime="149.00" waitingCount="3" stopTime="0.00" timeLoss="180.37" rerouteNo="1" devices="vehroute_161216_421_0 tripinfo_161216_421_0 routing_161216_421_0" vType="pkw" speedFactor="0.96" vaporized=""/>
    <tripinfo id="150535_418_0" depart="25445.00" departLane="22917421#3_0" departPos="4.40" departSpeed="0.00" departDelay="1.00" arrival="25479.00" arrivalLane="186623965#17_0" arrivalPos="143.63" arrivalSpeed="11.86" duration="34.00" routeLength="257.42" waitingTime="1.00" waitingCount="1" stopTime="0.00" timeLoss="8.96" rerouteNo="0" devices="vehroute_150535_418_0 tripinfo_150535_418_0 routing_150535_418_0" vType="pkw" speedFactor="0.93" vaporized=""/>
    <tripinfo id="148727_417_0" depart="25479.00" departLane="23283579#1_0" departPos="4.40" departSpeed="0.00" departDelay="0.00" arrival="25484.00" arrivalLane="23283579#1_0" arrivalPos="22.22" arrivalSpeed="8.41" duration="5.00" routeLength="17.82" waitingTime="0.00" waitingCount="0" stopTime="0.00" timeLoss="3.22" rerouteNo="1" devices="vehroute_148727_417_0 tripinfo_148727_417_0 routing_148727_417_0" vType="pkw" speedFactor="0.97" vaporized=""/>
    <tripinfo id="149422_417_0" depart="25310.00" departLane="22917421#3_0" departPos="4.40" departSpeed="0.00" departDelay="0.00" arrival="25485.00" arrivalLane="-23840935_0" arrivalPos="84.89" arrivalSpeed="7.88" duration="175.00" routeLength="1271.22" waitingTime="8.00" waitingCount="2" stopTime="0.00" timeLoss="28.86" rerouteNo="1" devices="vehroute_149422_417_0 tripinfo_149422_417_0 routing_149422_417_0" vType="pkw" speedFactor="1.01" vaporized=""/>