<?xml version="1.0" encoding="UTF-8"?>

<!-- generated on 2025-05-20 17:51:29 by Eclipse SUMO sumo Version 1.20.0
<configuration xmlns:xsi="http://www.w3.org/2001/XMLSchema-instance" xsi:noNamespaceSchemaLocation="http://sumo.dlr.de/xsd/sumoConfiguration.xsd">

    <input>
        <net-file value="C:\Users\skang\Desktop\최석환\강의\무인항공딥러닝개론\RESCO-main\resco_benchmark\environments/cologne8/cologne8.net.xml"/>
        <route-files value="C:\Users\skang\Desktop\최석환\강의\무인항공딥러닝개론\RESCO-main\resco_benchmark\environments/cologne8/cologne8.rou.xml"/>
    </input>

    <output>
        <tripinfo-output value="C:\Users\skang\Desktop\최석환\강의\무인항공딥러닝개론\results\MPLight-tr0-cologne8-0-mplight-pressure\tripinfo_99.xml"/>
        <tripinfo-output.write-unfinished value="true"/>
        <vehroute-output value="C:\Users\skang\Desktop\최석환\강의\무인항공딥러닝개론\results\MPLight-tr0-cologne8-0-mplight-pressure\route_99.xml"/>
        <vehroute-output.sorted value="True"/>
        <vehroute-output.write-unfinished value="True"/>
        <collision-output value="C:\Users\skang\Desktop\최석환\강의\무인항공딥러닝개론\results\MPLight-tr0-cologne8-0-mplight-pressure\coll_99.xml"/>
        <statistic-output value="C:\Users\skang\Desktop\최석환\강의\무인항공딥러닝개론\results\MPLight-tr0-cologne8-0-mplight-pressure\stats_99.xml"/>
    </output>

    <time>
        <begin value="25200"/>
        <end value="28800"/>
    </time>

    <processing>
        <time-to-teleport value="-1"/>
    </processing>

    <report>
        <no-warnings value="True"/>
        <no-step-log value="True"/>
    </report>

    <traci_server>
        <remote-port value="57702"/>
    </traci_server>

    <random_number>
        <random value="true"/>
    </random_number>

</configuration>
-->

<tripinfos xmlns:xsi="http://www.w3.org/2001/XMLSchema-instance" xsi:noNamespaceSchemaLocation="http://sumo.dlr.de/xsd/tripinfo_file.xsd">
    <tripinfo id="142890_415_0" depart="25218.00" departLane="-23283579#1_0" departPos="4.40" departSpeed="0.00" departDelay="0.00" arrival="25226.00" arrivalLane="23283579#1_0" arrivalPos="22.22" arrivalSpeed="11.73" duration="8.00" routeLength="44.72" waitingTime="0.00" waitingCount="0" stopTime="0.00" timeLoss="3.77" rerouteNo="0" devices="vehroute_142890_415_0 tripinfo_142890_415_0 routing_142890_415_0" vType="pkw" speedFactor="0.94" vaporized=""/>
    <tripinfo id="137959_412_0" depart="25209.00" departLane="-186623965#18_0" departPos="4.40" departSpeed="0.00" departDelay="0.00" arrival="25239.00" arrivalLane="-22917421#4_0" arrivalPos="96.26" arrivalSpeed="7.44" duration="30.00" routeLength="263.02" waitingTime="0.00" waitingCount="0" stopTime="0.00" timeLoss="6.12" rerouteNo="0" devices="vehroute_137959_412_0 tripinfo_137959_412_0 routing_137959_412_0" vType="pkw" speedFactor="1.03" vaporized=""/>
    <tripinfo id="155570_420_0" depart="25200.00" departLane="-28675510#11_0" departPos="4.40" departSpeed="0.00" departDelay="0.00" arrival="25240.00" arrivalLane="28675510#7_0" arrivalPos="257.94" arrivalSpeed="14.29" duration="40.00" routeLength="516.12" waitingTime="0.00" waitingCount="0" stopTime="0.00" timeLoss="5.60" rerouteNo="0" devices="vehroute_155570_420_0 tripinfo_155570_420_0 routing_155570_420_0" vType="pkw" speedFactor="1.09" vaporized=""/>
    <tripinfo id="138070_412_0" depart="25229.00" departLane="22917421#3_0" departPos="4.40" departSpeed="0.00" departDelay="0.00" arrival="25258.00" arrivalLane="186623965#17_0" arrivalPos="143.63" arrivalSpeed="12.34" duration="29.00" routeLength="257.42" waitingTime="0.00" waitingCount="0" stopTime="0.00" timeLoss="3.98" rerouteNo="0" devices="vehroute_138070_412_0 tripinfo_138070_412_0 routing_138070_412_0" vType="pkw" speedFactor="0.95" vaporized=""/>
    <tripinfo id="153496_420_0" depart="25232.00" departLane="22917421#3_0" departPos="4.40" departSpeed="0.00" departDelay="0.00" arrival="25259.00" arrivalLane="186623965#17_0" arrivalPos="143.63" arrivalSpeed="14.73" duration="27.00" routeLength="257.42" waitingTime="0.00" waitingCount="0" stopTime="0.00" timeLoss="6.57" rerouteNo="0" devices="vehroute_153496_420_0 tripinfo_153496_420_0 routing_153496_420_0" vType="pkw" speedFactor="1.15" vaporized=""/>
    <tripinfo id="155353_420_0" depart="25235.00" departLane="22917421#3_0" departPos="4.40" departSpeed="0.00" departDelay="1.00" arrival="25264.00" arrivalLane="186623965#17_0" arrivalPos="143.63" arrivalSpeed="12.06" duration="29.00" routeLength="257.42" waitingTime="0.00" waitingCount="0" stopTime="0.00" timeLoss="3.79" rerouteNo="0" devices="vehroute_155353_420_0 tripinfo_155353_420_0 routing_155353_420_0" vType="pkw" speedFactor="0.94" vaporized=""/>
    <tripinfo id="134603_411_0" depart="25206.00" departLane="-28675510#11_0" departPos="4.40" departSpeed="0.00" departDelay="0.00" arrival="25273.00" arrivalLane="28675510#7_0" arrivalPos="257.94" arrivalSpeed="11.28" duration="67.00" routeLength="516.12" waitingTime="16.00" waitingCount="1" stopTime="0.00" timeLoss="25.20" rerouteNo="0" devices="vehroute_134603_411_0 tripinfo_134603_411_0 routing_134603_411_0" vType="pkw" speedFactor="0.89" vaporized=""/>
    <tripinfo id="118788_405_0" depart="25247.00" departLane="22917421#3_0" departPos="4.40" departSpeed="0.00" departDelay="0.00" arrival="25273.00" arrivalLane="186623965#17_0" arrivalPos="143.63" arrivalSpeed="12.97" duration="26.00" routeLength="257.42" waitingTime="0.00" waitingCount="0" stopTime="0.00" timeLoss="3.25" rerouteNo="0" devices="vehroute_118788_405_0 tripinfo_118788_405_0 routing_118788_405_0" vType="pkw" speedFactor="1.02" vaporized=""/>
    <tripinfo id="161942_421_0" depart="25233.00" departLane="-42925825#2_0" departPos="4.40" departSpeed="0.00" departDelay="0.00" arrival="25280.00" arrivalLane="42925825#0_0" arrivalPos="254.17" arrivalSpeed="13.76" duration="47.00" routeLength="508.64" waitingTime="1.00" waitingCount="1" stopTime="0.00" timeLoss="11.25" rerouteNo="0" devices="vehroute_161942_421_0 tripinfo_161942_421_0 routing_161942_421_0" vType="pkw" speedFactor="1.04" vaporized=""/>
    <tripinfo id="144617_416_0" depart="25256.00" departLane="22917421#3_0" departPos="4.40" departSpeed="0.00" departDelay="0.00" arrival="25282.00" arrivalLane="186623965#17_0" arrivalPos="143.63" arrivalSpeed="14.06" duration="26.00" routeLength="257.42" waitingTime="0.00" waitingCount="0" stopTime="0.00" timeLoss="3.82" rerouteNo="0" devices="vehroute_144617_416_0 tripinfo_144617_416_0 routing_144617_416_0" vType="pkw" speedFactor="1.07" vaporized=""/>
    <tripinfo id="140143_414_0" depart="25211.00" departLane="-28675510#11_0" departPos="4.40" departSpeed="0.00" departDelay="1.00" arrival="25293.00" arrivalLane="28675510#7_0" arrivalPos="257.94" arrivalSpeed="12.68" duration="82.00" routeLength="516.12" waitingTime="28.00" waitingCount="2" stopTime="0.00" timeLoss="41.49" rerouteNo="0" devices="vehroute_140143_414_0 tripinfo_140143_414_0 routing_140143_414_0" vType="pkw" speedFactor="0.94" vaporized=""/>
    <tripinfo id="111571_401_0" depart="25267.00" departLane="-353069169#0_0" departPos="4.40" departSpeed="0.00" departDelay="0.00" arrival="25296.00" arrivalLane="24487264_0" arrivalPos="166.35" arrivalSpeed="12.99" duration="29.00" routeLength="286.19" waitingTime="0.00" waitingCount="0" stopTime="0.00" timeLoss="6.28" rerouteNo="1" devices="vehroute_111571_401_0 tripinfo_111571_401_0 routing_111571_401_0" vType="pkw" speedFactor="0.98" vaporized=""/>
    <tripinfo id="162497_421_0" depart="25273.00" departLane="22917421#3_0" departPos="4.40" departSpeed="0.00" departDelay="0.00" arrival="25301.00" arrivalLane="186623965#17_0" arrivalPos="143.63" arrivalSpeed="13.14" duration="28.00" routeLength="257.42" waitingTime="0.00" waitingCount="0" stopTime="0.00" timeLoss="3.79" rerouteNo="0" devices="vehroute_162497_421_0 tripinfo_162497_421_0 routing_162497_421_0" vType="pkw" speedFactor="0.97" vaporized=""/>
    <tripinfo id="150593_418_0" depart="25297.00" departLane="22959552#0_0" departPos="4.40" departSpeed="0.00" departDelay="0.00" arrival="25310.00" arrivalLane="22959552#0_0" arrivalPos="91.39" arrivalSpeed="8.25" duration="13.00" routeLength="86.99" waitingTime="0.00" waitingCount="0" stopTime="0.00" timeLoss="2.56" rerouteNo="1" devices="vehroute_150593_418_0 tripinfo_150593_418_0 routing_150593_418_0" vType="pkw" speedFactor="1.02" vaporized=""/>
    <tripinfo id="158885_421_0" depart="25220.00" departLane="22917421#3_0" departPos="4.40" departSpeed="0.00" departDelay="0.00" arrival="25315.00" arrivalLane="28675510#7_0" arrivalPos="257.94" arrivalSpeed="14.76" duration="95.00" routeLength="937.03" waitingTime="0.00" waitingCount="0" stopTime="0.00" timeLoss="8.59" rerouteNo="1" devices="vehroute_158885_421_0 tripinfo_158885_421_0 routing_158885_421_0" vType="pkw" speedFactor="1.15" vaporized=""/>
    <tripinfo id="145512_416_0" depart="25308.00" departLane="22917421#3_0" departPos="4.40" departSpeed="0.00" departDelay="0.00" arrival="25337.00" arrivalLane="186623965#17_0" arrivalPos="143.63" arrivalSpeed="12.03" duration="29.00" routeLength="257.42" waitingTime="0.00" waitingCount="0" stopTime="0.00" timeLoss="3.10" rerouteNo="0" devices="vehroute_145512_416_0 tripinfo_145512_416_0 routing_145512_416_0" vType="pkw" speedFactor="0.92" vaporized=""/>
    <tripinfo id="171184_426_0" depart="25326.00" departLane="133081987#0_0" departPos="4.40" departSpeed="0.00" departDelay="0.00" arrival="25343.00" arrivalLane="23283436_0" arrivalPos="65.76" arrivalSpeed="12.45" duration="17.00" routeLength="154.99" waitingTime="0.00" waitingCount="0" stopTime="0.00" timeLoss="5.24" rerouteNo="0" devices="vehroute_171184_426_0 tripinfo_171184_426_0 routing_171184_426_0" vType="pkw" speedFactor="0.98" vaporized=""/>
    <tripinfo id="144017_416_0" depart="25348.00" departLane="-353069169#0_0" departPos="4.40" departSpeed="0.00" departDelay="0.00" arrival="25366.00" arrivalLane="323416262_0" arrivalPos="87.54" arrivalSpeed="14.11" duration="18.00" routeLength="175.35" waitingTime="0.00" waitingCount="0" stopTime="0.00" timeLoss="6.24" rerouteNo="0" devices="vehroute_144017_416_0 tripinfo_144017_416_0 routing_144017_416_0" vType="pkw" speedFactor="1.07" vaporized=""/>
    <tripinfo id="166783_424_0" depart="25349.00" departLane="22917421#3_0" departPos="4.40" departSpeed="0.00" departDelay="0.00" arrival="25374.00" arrivalLane="186623965#17_0" arrivalPos="143.63" arrivalSpeed="14.75" duration="25.00" routeLength="257.42" waitingTime="0.00" waitingCount="0" stopTime="0.00" timeLoss="3.55" rerouteNo="0" devices="vehroute_166783_424_0 tripinfo_166783_424_0 routing_166783_424_0" vType="pkw" speedFactor="1.11" vaporized=""/>
    <tripinfo id="174717_427_0" depart="25373.00" departLane="22917421#3_0" departPos="4.40" departSpeed="0.00" departDelay="0.00" arrival="25398.00" arrivalLane="186623965#17_0" arrivalPos="143.63" arrivalSpeed="14.05" duration="25.00" routeLength="257.42" waitingTime="0.00" waitingCount="0" stopTime="0.00" timeLoss="3.22" rerouteNo="0" devices="vehroute_174717_427_0 tripinfo_174717_427_0 routing_174717_427_0" vType="pkw" speedFactor="1.08" vaporized=""/>
    <tripinfo id="164277_422_0" depart="25343.00" departLane="23285888#0_0" departPos="4.40" departSpeed="0.00" departDelay="0.00" arrival="25401.00" arrivalLane="297047309#0_0" arrivalPos="91.17" arrivalSpeed="13.92" duration="58.00" routeLength="518.80" waitingTime="0.00" waitingCount="0" stopTime="0.00" timeLoss="7.40" rerouteNo="1" devices="vehroute_164277_422_0 tripinfo_164277_422_0 routing_164277_422_0" vType="pkw" speedFactor="1.07" vaporized=""/>
    <tripinfo id="142307_415_0" depart="25375.00" departLane="22917421#3_0" departPos="4.40" departSpeed="0.00" departDelay="0.00" arrival="25402.00" arrivalLane="186623965#17_0" arrivalPos="143.63" arrivalSpeed="13.79" duration="27.00" routeLength="257.42" waitingTime="1.00" waitingCount="1" stopTime="0.00" timeLoss="4.58" rerouteNo="0" devices="vehroute_142307_415_0 tripinfo_142307_415_0 routing_142307_415_0" vType="pkw" speedFactor="1.04" vaporized=""/>
    <tripinfo id="157954_421_0" depart="25388.00" departLane="22917421#3_0" departPos="4.40" departSpeed="0.00" departDelay="0.00" arrival="25414.00" arrivalLane="186623965#17_0" arrivalPos="143.63" arrivalSpeed="14.02" duration="26.00" routeLength="257.42" waitingTime="0.00" waitingCount="0" stopTime="0.00" timeLoss="3.32" rerouteNo="0" devices="vehroute_157954_421_0 tripinfo_157954_421_0 routing_157954_421_0" vType="pkw" speedFactor="1.05" vaporized=""/>
    <tripinfo id="83049_390_0" depart="25408.00" departLane="-4936412_0" departPos="4.40" departSpeed="0.00" departDelay="0.00" arrival="25430.00" arrivalLane="8716827#0_0" arrivalPos="109.12" arrivalSpeed="7.21" duration="22.00" routeLength="148.59" waitingTime="0.00" waitingCount="0" stopTime="0.00" timeLoss="4.07" rerouteNo="0" devices="vehroute_83049_390_0 tripinfo_83049_390_0 routing_83049_390_0" vType="pkw" speedFactor="0.95" vaporized=""/>
    <tripinfo id="67978_381_0" depart="25412.00" departLane="-4936412_0" departPos="4.40" departSpeed="0.00" departDelay="0.00" arrival="25434.00" arrivalLane="8716827#0_0" arrivalPos="109.12" arrivalSpeed="7.76" duration="22.00" routeLength="148.59" waitingTime="0.00" waitingCount="0" stopTime="0.00" timeLoss="4.31" rerouteNo="0" devices="vehroute_67978_381_0 tripinfo_67978_381_0 routing_67978_381_0" vType="pkw" speedFactor="0.94" vaporized=""/>
    <tripinfo id="154420_420_0" depart="25411.00" departLane="22917421#3_0" departPos="4.40" departSpeed="0.00" departDelay="0.00" arrival="25437.00" arrivalLane="186623965#17_0" arrivalPos="143.63" arrivalSpeed="13.72" duration="26.00" routeLength="257.42" waitingTime="0.00" waitingCount="0" stopTime="0.00" timeLoss="3.19" rerouteNo="0" devices="vehroute_154420_420_0 tripinfo_154420_420_0 routing_154420_420_0" vType="pkw" speedFactor="1.05" vaporized=""/>
    <tripinfo id="148419_417_0" depart="25363.00" departLane="133081987#3_0" departPos="4.40" departSpeed="0.00" departDelay="0.00" arrival="25444.00" arrivalLane="297047309#0_0" arrivalPos="91.17" arrivalSpeed="13.39" duration="81.00" routeLength="785.73" waitingTime="0.00" waitingCount="0" stopTime="0.00" timeLoss="8.52" rerouteNo="1" devices="vehroute_148419_417_0 tripinfo_148419_417_0 routing_148419_417_0" vType="pkw" speedFactor="1.04" vaporized=""/>
    <tripinfo id="154646_420_0" depart="25419.00" departLane="25166682#0_0" departPos="4.40" departSpeed="0.00" departDelay="0.00" arrival="25447.00" arrivalLane="323450710#0_0" arrivalPos="95.59" arrivalSpeed="12.94" duration="28.00" routeLength="289.69" waitingTime="0.00" waitingCount="0" stopTime="0.00" timeLoss="5.68" rerouteNo="1" devices="vehroute_154646_420_0 tripinfo_154646_420_0 routing_154646_420_0" vType="pkw" speedFactor="0.97" vaporized=""/>
    <tripinfo id="150411_418_0" depart="25329.00" departLane="22917421#3_0" departPos="4.40" departSpeed="0.00" departDelay="0.00" arrival="25449.00" arrivalLane="23840972_0" arrivalPos="97.66" arrivalSpeed="7.71" duration="120.00" routeLength="954.69" waitingTime="0.00" waitingCount="0" stopTime="0.00" timeLoss="11.76" rerouteNo="1" devices="vehroute_150411_418_0 tripinfo_150411_418_0 routing_150411_418_0" vType="pkw" speedFactor="1.01" vaporized=""/>
    <tripinfo id="175131_428_0" depart="25328.00" departLane="23840713#2_0" departPos="4.40" departSpeed="0.00" departDelay="0.00" arrival="25452.00" arrivalLane="42925825#0_0" arrivalPos="254.17" arrivalSpeed="12.21" duration="124.00" routeLength="1254.72" waitingTime="0.00" waitingCount="0" stopTime="0.00" timeLoss="10.84" rerouteNo="1" devices="vehroute_175131_428_0 tripinfo_175131_428_0 routing_175131_428_0" vType="pkw" speedFactor="0.96" vaporized=""/>
    <tripinfo id="122677_406_0" depart="25441.00" departLane="-4936412_0" departPos="4.40" departSpeed="0.00" departDelay="0.00" arrival="25465.00" arrivalLane="8716827#0_0" arrivalPos="109.12" arrivalSpeed="6.88" duration="24.00" routeLength="148.59" waitingTime="0.00" waitingCount="0" stopTime="0.00" timeLoss="4.74" rerouteNo="0" devices="vehroute_122677_406_0 tripinfo_122677_406_0 routing_122677_406_0" vType="pkw" speedFactor="0.88" vaporized=""/>
    <tripinfo id="146495_416_0" depart="25369.00" departLane="23840712#0_0" departPos="4.40" departSpeed="0.00" departDelay="0.00" arrival="25470.00" arrivalLane="-186623965#14_0" arrivalPos="159.69" arrivalSpeed="15.97" duration="101.00" routeLength="1176.49" waitingTime="0.00" waitingCount="0" stopTime="0.00" timeLoss="12.98" rerouteNo="1" devices="vehroute_146495_416_0 tripinfo_146495_416_0 routing_146495_416_0" vType="pkw" speedFactor="1.19" vaporized=""/>
    <tripinfo id="166238_424_0" depart="25449.00" departLane="42925825#0_0" departPos="4.40" departSpeed="0.00" departDelay="0.00" arrival="25471.00" arrivalLane="42925825#0_0" arrivalPos="254.17" arrivalSpeed="13.34" duration="22.00" routeLength="249.77" waitingTime="0.00" waitingCount="0" stopTime="0.00" timeLoss="4.14" rerouteNo="1" devices="vehroute_166238_424_0 tripinfo_166238_424_0 routing_166238_424_0" vType="pkw" speedFactor="1.01" vaporized=""/>
    <tripinfo id="139487_413_0" depart="25456.00" departLane="-4936412_0" departPos="4.40" departSpeed="0.00" departDelay="0.00" arrival="25477.00" arrivalLane="8716827#0_0" arrivalPos="109.12" arrivalSpeed="7.01" duration="21.00" routeLength="148.59" waitingTime="0.00" waitingCount="0" stopTime="0.00" timeLoss="4.51" rerouteNo="0" devices="vehroute_139487_413_0 tripinfo_139487_413_0 routing_139487_413_0" vType="pkw" speedFactor="1.00" vaporized=""/>
    <tripinfo id="150535_418_0" depart="25444.00" departLane="22917421#3_0" departPos="4.40" departSpeed="0.00" departDelay="0.00" arrival="25479.00" arrivalLane="186623965#17_0" arrivalPos="143.63" arrivalSpeed="9.36" duration="35.00" routeLength="257.42" waitingTime="0.00" waitingCount="0" stopTime="0.00" timeLoss="3.65" rerouteNo="0" devices="vehroute_150535_418_0 tripinfo_150535_418_0 routing_150535_418_0" vType="pkw" speedFactor="0.75" vaporized=""/>
    <tripinfo id="171631_426_0" depart="25415.00" departLane="23283470#0_0" departPos="4.40" departSpeed="0.00" departDelay="0.00" arrival="25480.00" arrivalLane="23283579#1_0" arrivalPos="22.22" arrivalSpeed="12.13" duration="65.00" routeLength="531.05" waitingTime="0.00" waitingCount="0" stopTime="0.00" timeLoss="8.13" rerouteNo="1" devices="vehroute_171631_426_0 tripinfo_171631_426_0 routing_171631_426_0" vType="pkw" speedFactor="0.95" vaporized=""/>
    <tripinfo id="148727_417_0" depart="25479.00" departLane="23283579#1_0" departPos="4.40" departSpeed="0.00" departDelay="0.00" arrival="25484.00" arrivalLane="23283579#1_0" arrivalPos="22.22" arrivalSpeed="8.09" duration="5.00" routeLength="17.82" waitingTime="0.00" waitingCount="0" stopTime="0.00" timeLoss="3.35" rerouteNo="1" devices="vehroute_148727_417_0 tripinfo_148727_417_0 routing_148727_417_0" vType="pkw" speedFactor="1.04" vaporized=""/>
    <tripinfo id="149422_417_0" depart="25310.00" departLane="22917421#3_0" departPos="4.40" departSpeed="0.00" departDelay="0.00" arrival="25486.00" arrivalLane="-23840935_0" arrivalPos="84.89" arrivalSpeed="7.46" duration="176.00" routeLength="1270.70" waitingTime="0.00" waitingCount="0" stopTime="0.00" timeLoss="20.68" rerouteNo="1" devices="vehroute_149422_417_0 tripinfo_149422_417_0 routing_149422_417_0" vType="pkw" speedFactor="0.95" vaporized=""/>
    <tripinfo id="151819_419_0" depart="25464.00" departLane="22917421#3_0" departPos="4.40" departSpeed="0.00" departDelay="0.00" arrival="25491.00" arrivalLane="186623965#17_0" arrivalPos="143.63" arrivalSpeed="13.25" duration="27.00" routeLength="257.42" waitingTime="0.00" waitingCount="0" stopTime="0.00" timeLoss="3.51" rerouteNo="0" devices="vehroute_151819_419_0 tripinfo_151819_419_0 routing_151819_419_0" vType="pkw" speedFactor="1.03" vaporized=""/>
    <tripinfo id="169793_426_0" depart="25405.00" departLane="290365598#0_0" departPos="4.40" departSpeed="0.00" departDelay="0.00" arrival="25504.00" arrivalLane="-186623965#14_0" arrivalPos="159.69" arrivalSpeed="14.07" duration="99.00" routeLength="1074.79" waitingTime="0.00" waitingCount="0" stopTime="0.00" timeLoss="10.05" rerouteNo="1" devices="vehroute_169793_426_0 tripinfo_169793_426_0 routing_169793_426_0" vType="pkw" speedFactor="1.03" vaporized=""/>
    <tripinfo id="136088_411_0" depart="25475.00" departLane="-4936412_0" departPos="4.40" departSpeed="0.00" departDelay="0.00" arrival="25510.00" arrivalLane="8716827#0_0" arrivalPos="109.12" arrivalSpeed="6.62" duration="35.00" routeLength="148.59" waitingTime="9.00" waitingCount="1" stopTime="0.00" timeLoss="16.74" rerouteNo="0" devices="vehroute_136088_411_0 tripinfo_136088_411_0 routing_136088_411_0" vType="pkw" speedFactor="0.90" vaporized=""/>
    <tripinfo id="168963_425_0" depart="25422.00" departLane="-28675493_0" departPos="4.40" departSpeed="0.00" departDelay="0.00" arrival="25513.00" arrivalLane="23283579#1_0" arrivalPos="22.22" arrivalSpeed="13.40" duration="91.00" routeLength="809.74" waitingTime="0.00" waitingCount="0" stopTime="0.00" timeLoss="10.93" rerouteNo="1" devices="vehroute_168963_425_0 tripinfo_168963_425_0 routing_168963_425_0" vType="pkw" speedFactor="0.98" vaporized=""/>
    <tripinfo id="173519_427_0" depart="25477.00" departLane="22917421#3_0" departPos="4.40" departSpeed="0.00" departDelay="0.00" arrival="25513.00" arrivalLane="186623965#17_0" arrivalPos="143.63" arrivalSpeed="9.38" duration="36.00" routeLength="257.42" waitingTime="0.00" waitingCount="0" stopTime="0.00" timeLoss="4.11" rerouteNo="0" devices="vehroute_173519_427_0 tripinfo_173519_427_0 routing_173519_427_0" vType="pkw" speedFactor="0.74" vaporized=""/>
    <tripinfo id="110175_401_0" depart="25491.00" departLane="-4936412_0" departPos="4.40" departSpeed="0.00" departDelay="1.00" arrival="25515.00" arrivalLane="155723703#0_0" arrivalPos="92.60" arrivalSpeed="10.88" duration="24.00" routeLength="132.82" waitingTime="4.00" waitingCount="1" stopTime="0.00" timeLoss="11.97" rerouteNo="0" devices="vehroute_110175_401_0 tripinfo_110175_401_0 routing_110175_401_0" vType="pkw" speedFactor="0.80" vaporized=""/>
    <tripinfo id="82749_390_0" depart="25496.00" departLane="-4936412_0" departPos="4.40" departSpeed="0.00" departDelay="0.00" arrival="25517.00" arrivalLane="155723703#0_0" arrivalPos="92.60" arrivalSpeed="14.15" duration="21.00" routeLength="132.82" waitingTime="2.00" waitingCount="1" stopTime="0.00" timeLoss="11.35" rerouteNo="0" devices="vehroute_82749_390_0 tripinfo_82749_390_0 routing_82749_390_0" vType="pkw" speedFactor="1.06" vaporized=""/>
    <tripinfo id="115107_403_0" depart="25488.00" departLane="-4936412_0" departPos="4.40" departSpeed="0.00" departDelay="0.00" arrival="25520.00" arrivalLane="8716827#0_0" arrivalPos="109.12" arrivalSpeed="6.89" duration="32.00" routeLength="148.59" waitingTime="5.00" waitingCount="1" stopTime="0.00" timeLoss="13.58" rerouteNo="0" devices="vehroute_115107_403_0 tripinfo_115107_403_0 routing_115107_403_0" vType="pkw" speedFactor="0.91" vaporized=""/>
    <tripinfo id="104777_398_0" depart="25500.00" departLane="-4936412_0" departPos="4.40" departSpeed="0.00" departDelay="0.00" arrival="25528.00" arrivalLane="8716827#0_0" arrivalPos="109.12" arrivalSpeed="8.02" duration="28.00" routeLength="148.59" waitingTime="0.00" waitingCount="0" stopTime="0.00" timeLoss="11.75" rerouteNo="0" devices="vehroute_104777_398_0 tripinfo_104777_398_0 routing_104777_398_0" vType="pkw" speedFactor="1.02" vaporized=""/>
    <tripinfo id="177623_429_0" depart="25497.00" departLane="23647118_0" departPos="4.40" departSpeed="0.00" departDelay="0.00" arrival="25546.00" arrivalLane="297047309#0_0" arrivalPos="91.17" arrivalSpeed="12.32" duration="49.00" routeLength="408.32" waitingTime="0.00" waitingCount="0" stopTime="0.00" timeLoss="6.00" rerouteNo="1" devices="vehroute_177623_429_0 tripinfo_177623_429_0 routing_177623_429_0" vType="pkw" speedFactor="0.95" vaporized=""/>
    <tripinfo id="171497_426_0" depart="25456.00" departLane="23647126_0" departPos="4.40" departSpeed="0.00" departDelay="0.00" arrival="25550.00" arrivalLane="23283579#1_0" arrivalPos="22.22" arrivalSpeed="12.74" duration="94.00" routeLength="761.84" waitingTime="0.00" waitingCount="0" stopTime="0.00" timeLoss="11.12" rerouteNo="1" devices="vehroute_171497_426_0 tripinfo_171497_426_0 routing_171497_426_0" vType="pkw" speedFactor="0.99" vaporized=""/>
    <tripinfo id="155960_420_0" depart="25521.00" departLane="-23283472#2_0" departPos="4.40" departSpeed="0.00" departDelay="0.00" arrival="25563.00" arrivalLane="23283436_0" arrivalPos="65.76" arrivalSpeed="12.93" duration="42.00" routeLength="365.77" waitingTime="0.00" waitingCount="0" stopTime="0.00" timeLoss="6.94" rerouteNo="1" devices="vehroute_155960_420_0 tripinfo_155960_420_0 routing_155960_420_0" vType="pkw" speedFactor="1.01" vaporized=""/>
    <tripinfo id="173080_427_0" depart="25556.00" departLane="22917421#3_0" departPos="4.40" departSpeed="0.00" departDelay="0.00" arrival="25580.00" arrivalLane="186623965#17_0" arrivalPos="143.63" arrivalSpeed="15.92" duration="24.00" routeLength="257.42" waitingTime="0.00" waitingCount="0" stopTime="0.00" timeLoss="3.73" rerouteNo="0" devices="vehroute_173080_427_0 tripinfo_173080_427_0 routing_173080_427_0" vType="pkw" speedFactor="1.17" vaporized=""/>
    <tripinfo id="156093_420_0" depart="25584.00" departLane="23283579#1_0" departPos="4.40" departSpeed="0.00" departDelay="0.00" arrival="25588.00" arrivalLane="23283579#1_0" arrivalPos="22.22" arrivalSpeed="8.26" duration="4.00" routeLength="17.82" waitingTime="0.00" waitingCount="0" stopTime="0.00" timeLoss="2.40" rerouteNo="1" devices="vehroute_156093_420_0 tripinfo_156093_420_0 routing_156093_420_0" vType="pkw" speedFactor="0.88" vaporized=""/>
    <tripinfo id="119014_405_0" depart="25580.00" departLane="132042183_0" departPos="4.40" departSpeed="0.00" departDelay="0.00" arrival="25594.00" arrivalLane="-23283472#2_0" arrivalPos="70.88" arrivalSpeed="10.00" duration="14.00" routeLength="103.30" waitingTime="0.00" waitingCount="0" stopTime="0.00" timeLoss="3.32" rerouteNo="0" devices="vehroute_119014_405_0 tripinfo_119014_405_0 routing_119014_405_0" vType="pkw" speedFactor="1.24" vaporized=""/>
    <tripinfo id="160078_421_0" depart="25575.00" departLane="-4936412_0" departPos="4.40" departSpeed="0.00" departDelay="0.00" arrival="25601.00" arrivalLane="8716827#0_0" arrivalPos="109.12" arrivalSpeed="5.74" duration="26.00" routeLength="148.59" waitingTime="0.00" waitingCount="0" stopTime="0.00" timeLoss="5.57" rerouteNo="0" devices="vehroute_160078_421_0 tripinfo_160078_421_0 routing_160078_421_0" vType="pkw" speedFactor="0.80" vaporized=""/>
    <tripinfo id="154649_420_0" depart="25466.00" departLane="22959550#3_0" departPos="4.40" departSpeed="0.00" departDelay="0.00" arrival="25604.00" arrivalLane="42925825#0_0" arrivalPos="254.17" arrivalSpeed="11.93" duration="138.00" routeLength="1354.02" waitingTime="0.00" waitingCount="0" stopTime="0.00" timeLoss="11.22" rerouteNo="1" devices="vehroute_154649_420_0 tripinfo_154649_420_0 routing_154649_420_0" vType="pkw" speedFactor="0.95" vaporized=""/>
    <tripinfo id="163913_422_0" depart="25581.00" departLane="-4936412_0" departPos="4.40" departSpeed="0.00" departDelay="0.00" arrival="25609.00" arrivalLane="8716827#0_0" arrivalPos="109.12" arrivalSpeed="7.62" duration="28.00" routeLength="148.59" waitingTime="3.00" waitingCount="1" stopTime="0.00" timeLoss="10.56" rerouteNo="0" devices="vehroute_163913_422_0 tripinfo_163913_422_0 routing_163913_422_0" vType="pkw" speedFactor="0.95" vaporized=""/>
    <tripinfo id="183189_431_0" depart="25575.00" departLane="23283474_0" departPos="4.40" departSpeed="0.00" departDelay="0.00" arrival="25613.00" arrivalLane="22959552#0_0" arrivalPos="91.39" arrivalSpeed="7.32" duration="38.00" routeLength="257.87" waitingTime="0.00" waitingCount="0" stopTime="0.00" timeLoss="5.42" rerouteNo="1" devices="vehroute_183189_431_0 tripinfo_183189_431_0 routing_183189_431_0" vType="pkw" speedFactor="0.96" vaporized=""/>
    <tripinfo id="102131_396_0" depart="25592.00" departLane="-4936412_0" departPos="4.40" departSpeed="0.00" departDelay="0.00" arrival="25617.00" arrivalLane="8716827#0_0" arrivalPos="109.12" arrivalSpeed="8.83" duration="25.00" routeLength="148.59" waitingTime="3.00" waitingCount="1" stopTime="0.00" timeLoss="10.10" rerouteNo="0" devices="vehroute_102131_396_0 tripinfo_102131_396_0 routing_102131_396_0" vType="pkw" speedFactor="1.16" vaporized=""/>
    <tripinfo id="133534_410_0" depart="25592.00" departLane="160807420_0" departPos="4.40" departSpeed="0.00" departDelay="0.00" arrival="25625.00" arrivalLane="8716827#0_0" arrivalPos="109.12" arrivalSpeed="7.95" duration="33.00" routeLength="270.84" waitingTime="0.00" waitingCount="0" stopTime="0.00" timeLoss="7.24" rerouteNo="1" devices="vehroute_133534_410_0 tripinfo_133534_410_0 routing_133534_410_0" vType="pkw" speedFactor="1.00" vaporized=""/>
    <tripinfo id="173839_427_0" depart="25612.00" departLane="186623965#17_0" departPos="4.40" departSpeed="0.00" departDelay="0.00" arrival="25627.00" arrivalLane="186623965#17_0" arrivalPos="143.63" arrivalSpeed="11.53" duration="15.00" routeLength="139.23" waitingTime="0.00" waitingCount="0" stopTime="0.00" timeLoss="3.52" rerouteNo="1" devices="vehroute_173839_427_0 tripinfo_173839_427_0 routing_173839_427_0" vType="pkw" speedFactor="0.88" vaporized=""/>
    <tripinfo id="161177_421_0" depart="25544.00" departLane="23840712#1_0" departPos="4.40" departSpeed="0.00" departDelay="0.00" arrival="25629.00" arrivalLane="297047309#0_0" arrivalPos="91.17" arrivalSpeed="13.50" duration="85.00" routeLength="701.15" waitingTime="0.00" waitingCount="0" stopTime="0.00" timeLoss="9.88" rerouteNo="1" devices="vehroute_161177_421_0 tripinfo_161177_421_0 routing_161177_421_0" vType="pkw" speedFactor="1.01" vaporized=""/>