<?xml version="1.0" encoding="UTF-8"?>

<!-- generated on 2025-05-20 17:46:38 by Eclipse SUMO sumo Version 1.20.0
<configuration xmlns:xsi="http://www.w3.org/2001/XMLSchema-instance" xsi:noNamespaceSchemaLocation="http://sumo.dlr.de/xsd/sumoConfiguration.xsd">

    <input>
        <net-file value="C:\Users\skang\Desktop\최석환\강의\무인항공딥러닝개론\RESCO-main\resco_benchmark\environments/cologne8/cologne8.net.xml"/>
        <route-files value="C:\Users\skang\Desktop\최석환\강의\무인항공딥러닝개론\RESCO-main\resco_benchmark\environments/cologne8/cologne8.rou.xml"/>
    </input>

    <output>
        <tripinfo-output value="C:\Users\skang\Desktop\최석환\강의\무인항공딥러닝개론\results\MPLight-tr0-cologne8-0-mplight-pressure\tripinfo_91.xml"/>
        <tripinfo-output.write-unfinished value="true"/>
        <vehroute-output value="C:\Users\skang\Desktop\최석환\강의\무인항공딥러닝개론\results\MPLight-tr0-cologne8-0-mplight-pressure\route_91.xml"/>
        <vehroute-output.sorted value="True"/>
        <vehroute-output.write-unfinished value="True"/>
        <collision-output value="C:\Users\skang\Desktop\최석환\강의\무인항공딥러닝개론\results\MPLight-tr0-cologne8-0-mplight-pressure\coll_91.xml"/>
        <statistic-output value="C:\Users\skang\Desktop\최석환\강의\무인항공딥러닝개론\results\MPLight-tr0-cologne8-0-mplight-pressure\stats_91.xml"/>
    </output>

    <time>
        <begin value="25200"/>
        <end value="28800"/>
    </time>

    <processing>
        <time-to-teleport value="-1"/>
    </processing>

    <report>
        <no-warnings value="True"/>
        <no-step-log value="True"/>
    </report>

    <traci_server>
        <remote-port value="57634"/>
    </traci_server>

    <random_number>
        <random value="true"/>
    </random_number>

</configuration>
-->

<tripinfos xmlns:xsi="http://www.w3.org/2001/XMLSchema-instance" xsi:noNamespaceSchemaLocation="http://sumo.dlr.de/xsd/tripinfo_file.xsd">
    <tripinfo id="142890_415_0" depart="25218.00" departLane="-23283579#1_0" departPos="4.40" departSpeed="0.00" departDelay="0.00" arrival="25226.00" arrivalLane="23283579#1_0" arrivalPos="22.22" arrivalSpeed="12.35" duration="8.00" routeLength="44.72" waitingTime="0.00" waitingCount="0" stopTime="0.00" timeLoss="4.20" rerouteNo="0" devices="vehroute_142890_415_0 tripinfo_142890_415_0 routing_142890_415_0" vType="pkw" speedFactor="1.06" vaporized=""/>
    <tripinfo id="155570_420_0" depart="25200.00" departLane="-28675510#11_0" departPos="4.40" departSpeed="0.00" departDelay="0.00" arrival="25245.00" arrivalLane="28675510#7_0" arrivalPos="257.94" arrivalSpeed="12.60" duration="45.00" routeLength="516.12" waitingTime="0.00" waitingCount="0" stopTime="0.00" timeLoss="5.54" rerouteNo="0" devices="vehroute_155570_420_0 tripinfo_155570_420_0 routing_155570_420_0" vType="pkw" speedFactor="0.96" vaporized=""/>
    <tripinfo id="134603_411_0" depart="25206.00" departLane="-28675510#11_0" departPos="4.40" departSpeed="0.00" departDelay="0.00" arrival="25250.00" arrivalLane="28675510#7_0" arrivalPos="257.94" arrivalSpeed="13.88" duration="44.00" routeLength="516.12" waitingTime="0.00" waitingCount="0" stopTime="0.00" timeLoss="6.31" rerouteNo="0" devices="vehroute_134603_411_0 tripinfo_134603_411_0 routing_134603_411_0" vType="pkw" speedFactor="1.00" vaporized=""/>
    <tripinfo id="140143_414_0" depart="25211.00" departLane="-28675510#11_0" departPos="4.40" departSpeed="0.00" departDelay="1.00" arrival="25255.00" arrivalLane="28675510#7_0" arrivalPos="257.94" arrivalSpeed="13.57" duration="44.00" routeLength="516.12" waitingTime="0.00" waitingCount="0" stopTime="0.00" timeLoss="6.95" rerouteNo="0" devices="vehroute_140143_414_0 tripinfo_140143_414_0 routing_140143_414_0" vType="pkw" speedFactor="1.03" vaporized=""/>
    <tripinfo id="137959_412_0" depart="25209.00" departLane="-186623965#18_0" departPos="4.40" departSpeed="0.00" departDelay="0.00" arrival="25261.00" arrivalLane="-22917421#4_0" arrivalPos="96.26" arrivalSpeed="6.80" duration="52.00" routeLength="263.02" waitingTime="18.00" waitingCount="1" stopTime="0.00" timeLoss="25.98" rerouteNo="0" devices="vehroute_137959_412_0 tripinfo_137959_412_0 routing_137959_412_0" vType="pkw" speedFactor="0.95" vaporized=""/>
    <tripinfo id="135663_411_0" depart="25217.00" departLane="-28675510#11_0" departPos="4.40" departSpeed="0.00" departDelay="3.00" arrival="25262.00" arrivalLane="28675510#7_0" arrivalPos="257.94" arrivalSpeed="13.61" duration="45.00" routeLength="516.12" waitingTime="0.00" waitingCount="0" stopTime="0.00" timeLoss="8.48" rerouteNo="0" devices="vehroute_135663_411_0 tripinfo_135663_411_0 routing_135663_411_0" vType="pkw" speedFactor="1.02" vaporized=""/>
    <tripinfo id="149045_417_0" depart="25220.00" departLane="-28675510#11_0" departPos="4.40" departSpeed="0.00" departDelay="3.00" arrival="25274.00" arrivalLane="28675510#7_0" arrivalPos="257.94" arrivalSpeed="11.05" duration="54.00" routeLength="516.12" waitingTime="1.00" waitingCount="1" stopTime="0.00" timeLoss="6.98" rerouteNo="0" devices="vehroute_149045_417_0 tripinfo_149045_417_0 routing_149045_417_0" vType="pkw" speedFactor="0.80" vaporized=""/>
    <tripinfo id="134428_411_0" depart="25237.00" departLane="-28675510#11_0" departPos="4.40" departSpeed="0.00" departDelay="0.00" arrival="25278.00" arrivalLane="28675510#7_0" arrivalPos="257.94" arrivalSpeed="15.19" duration="41.00" routeLength="516.12" waitingTime="0.00" waitingCount="0" stopTime="0.00" timeLoss="7.47" rerouteNo="0" devices="vehroute_134428_411_0 tripinfo_134428_411_0 routing_134428_411_0" vType="pkw" speedFactor="1.11" vaporized=""/>
    <tripinfo id="161942_421_0" depart="25233.00" departLane="-42925825#2_0" departPos="4.40" departSpeed="0.00" departDelay="0.00" arrival="25280.00" arrivalLane="42925825#0_0" arrivalPos="254.17" arrivalSpeed="13.50" duration="47.00" routeLength="508.64" waitingTime="2.00" waitingCount="1" stopTime="0.00" timeLoss="10.99" rerouteNo="0" devices="vehroute_161942_421_0 tripinfo_161942_421_0 routing_161942_421_0" vType="pkw" speedFactor="1.03" vaporized=""/>
    <tripinfo id="141355_415_0" depart="25232.00" departLane="-186623965#18_0" departPos="4.40" departSpeed="0.00" departDelay="0.00" arrival="25284.00" arrivalLane="42925825#0_0" arrivalPos="254.17" arrivalSpeed="13.26" duration="52.00" routeLength="625.62" waitingTime="0.00" waitingCount="0" stopTime="0.00" timeLoss="6.84" rerouteNo="1" devices="vehroute_141355_415_0 tripinfo_141355_415_0 routing_141355_415_0" vType="pkw" speedFactor="1.01" vaporized=""/>
    <tripinfo id="131071_409_0" depart="25236.00" departLane="-186623965#18_0" departPos="4.40" departSpeed="0.00" departDelay="0.00" arrival="25289.00" arrivalLane="42925825#0_0" arrivalPos="254.17" arrivalSpeed="13.21" duration="53.00" routeLength="625.62" waitingTime="0.00" waitingCount="0" stopTime="0.00" timeLoss="5.33" rerouteNo="1" devices="vehroute_131071_409_0 tripinfo_131071_409_0 routing_131071_409_0" vType="pkw" speedFactor="0.96" vaporized=""/>
    <tripinfo id="163799_422_0" depart="25256.00" departLane="-186623965#18_0" departPos="4.40" departSpeed="0.00" departDelay="1.00" arrival="25289.00" arrivalLane="-22917421#4_0" arrivalPos="96.26" arrivalSpeed="7.24" duration="33.00" routeLength="263.02" waitingTime="0.00" waitingCount="0" stopTime="0.00" timeLoss="6.19" rerouteNo="0" devices="vehroute_163799_422_0 tripinfo_163799_422_0 routing_163799_422_0" vType="pkw" speedFactor="0.90" vaporized=""/>
    <tripinfo id="126900_407_0" depart="25239.00" departLane="-186623965#18_0" departPos="4.40" departSpeed="0.00" departDelay="0.00" arrival="25296.00" arrivalLane="42925825#0_0" arrivalPos="254.17" arrivalSpeed="13.60" duration="57.00" routeLength="625.62" waitingTime="2.00" waitingCount="1" stopTime="0.00" timeLoss="11.90" rerouteNo="1" devices="vehroute_126900_407_0 tripinfo_126900_407_0 routing_126900_407_0" vType="pkw" speedFactor="1.00" vaporized=""/>
    <tripinfo id="126698_407_0" depart="25242.00" departLane="-186623965#18_0" departPos="4.40" departSpeed="0.00" departDelay="1.00" arrival="25298.00" arrivalLane="42925825#0_0" arrivalPos="254.17" arrivalSpeed="14.09" duration="56.00" routeLength="625.62" waitingTime="0.00" waitingCount="0" stopTime="0.00" timeLoss="13.19" rerouteNo="1" devices="vehroute_126698_407_0 tripinfo_126698_407_0 routing_126698_407_0" vType="pkw" speedFactor="1.07" vaporized=""/>
    <tripinfo id="111571_401_0" depart="25267.00" departLane="-353069169#0_0" departPos="4.40" departSpeed="0.00" departDelay="0.00" arrival="25298.00" arrivalLane="24487264_0" arrivalPos="166.35" arrivalSpeed="11.89" duration="31.00" routeLength="286.19" waitingTime="0.00" waitingCount="0" stopTime="0.00" timeLoss="5.19" rerouteNo="1" devices="vehroute_111571_401_0 tripinfo_111571_401_0 routing_111571_401_0" vType="pkw" speedFactor="0.86" vaporized=""/>
    <tripinfo id="163043_422_0" depart="25214.00" departLane="-28675510#11_0" departPos="4.40" departSpeed="0.00" departDelay="2.00" arrival="25299.00" arrivalLane="8716827#0_0" arrivalPos="109.12" arrivalSpeed="9.86" duration="85.00" routeLength="1154.53" waitingTime="0.00" waitingCount="0" stopTime="0.00" timeLoss="10.73" rerouteNo="1" devices="vehroute_163043_422_0 tripinfo_163043_422_0 routing_163043_422_0" vType="pkw" speedFactor="1.20" vaporized=""/>
    <tripinfo id="161216_421_0" depart="25250.00" departLane="-186623965#18_0" departPos="4.40" departSpeed="0.00" departDelay="2.00" arrival="25305.00" arrivalLane="42925825#0_0" arrivalPos="254.17" arrivalSpeed="12.10" duration="55.00" routeLength="625.62" waitingTime="0.00" waitingCount="0" stopTime="0.00" timeLoss="6.59" rerouteNo="1" devices="vehroute_161216_421_0 tripinfo_161216_421_0 routing_161216_421_0" vType="pkw" speedFactor="0.94" vaporized=""/>
    <tripinfo id="159622_421_0" depart="25253.00" departLane="-186623965#18_0" departPos="4.40" departSpeed="0.00" departDelay="2.00" arrival="25307.00" arrivalLane="42925825#0_0" arrivalPos="254.17" arrivalSpeed="14.54" duration="54.00" routeLength="625.62" waitingTime="0.00" waitingCount="0" stopTime="0.00" timeLoss="12.06" rerouteNo="1" devices="vehroute_159622_421_0 tripinfo_159622_421_0 routing_159622_421_0" vType="pkw" speedFactor="1.10" vaporized=""/>
    <tripinfo id="150593_418_0" depart="25297.00" departLane="22959552#0_0" departPos="4.40" departSpeed="0.00" departDelay="0.00" arrival="25315.00" arrivalLane="22959552#0_0" arrivalPos="91.39" arrivalSpeed="5.26" duration="18.00" routeLength="86.99" waitingTime="0.00" waitingCount="0" stopTime="0.00" timeLoss="2.60" rerouteNo="1" devices="vehroute_150593_418_0 tripinfo_150593_418_0 routing_150593_418_0" vType="pkw" speedFactor="0.69" vaporized=""/>
    <tripinfo id="163025_422_0" depart="25246.00" departLane="-28675510#11_0" departPos="4.40" departSpeed="0.00" departDelay="0.00" arrival="25318.00" arrivalLane="8716807#1_0" arrivalPos="110.75" arrivalSpeed="9.20" duration="72.00" routeLength="862.02" waitingTime="0.00" waitingCount="0" stopTime="0.00" timeLoss="8.49" rerouteNo="1" devices="vehroute_163025_422_0 tripinfo_163025_422_0 routing_163025_422_0" vType="pkw" speedFactor="1.16" vaporized=""/>
    <tripinfo id="166162_424_0" depart="25233.00" departLane="22959550#0_0" departPos="4.40" departSpeed="0.00" departDelay="0.00" arrival="25320.00" arrivalLane="28675510#7_0" arrivalPos="257.94" arrivalSpeed="14.56" duration="87.00" routeLength="903.30" waitingTime="0.00" waitingCount="0" stopTime="0.00" timeLoss="7.71" rerouteNo="1" devices="vehroute_166162_424_0 tripinfo_166162_424_0 routing_166162_424_0" vType="pkw" speedFactor="1.06" vaporized=""/>
    <tripinfo id="152887_419_0" depart="25230.00" departLane="-28675510#11_0" departPos="4.40" departSpeed="0.00" departDelay="1.00" arrival="25327.00" arrivalLane="8716827#0_0" arrivalPos="109.12" arrivalSpeed="8.51" duration="97.00" routeLength="1154.53" waitingTime="0.00" waitingCount="0" stopTime="0.00" timeLoss="10.15" rerouteNo="1" devices="vehroute_152887_419_0 tripinfo_152887_419_0 routing_152887_419_0" vType="pkw" speedFactor="1.02" vaporized=""/>
    <tripinfo id="171184_426_0" depart="25326.00" departLane="133081987#0_0" departPos="4.40" departSpeed="0.00" departDelay="0.00" arrival="25348.00" arrivalLane="23283436_0" arrivalPos="65.76" arrivalSpeed="13.51" duration="22.00" routeLength="154.99" waitingTime="3.00" waitingCount="1" stopTime="0.00" timeLoss="11.27" rerouteNo="0" devices="vehroute_171184_426_0 tripinfo_171184_426_0 routing_171184_426_0" vType="pkw" speedFactor="1.05" vaporized=""/>
    <tripinfo id="142950_415_0" depart="25274.00" departLane="-28675510#11_0" departPos="4.40" departSpeed="0.00" departDelay="0.00" arrival="25358.00" arrivalLane="155723703#0_0" arrivalPos="92.60" arrivalSpeed="14.86" duration="84.00" routeLength="1137.50" waitingTime="0.00" waitingCount="0" stopTime="0.00" timeLoss="6.57" rerouteNo="1" devices="vehroute_142950_415_0 tripinfo_142950_415_0 routing_142950_415_0" vType="pkw" speedFactor="1.07" vaporized=""/>
    <tripinfo id="144017_416_0" depart="25348.00" departLane="-353069169#0_0" departPos="4.40" departSpeed="0.00" departDelay="0.00" arrival="25367.00" arrivalLane="323416262_0" arrivalPos="87.54" arrivalSpeed="12.12" duration="19.00" routeLength="175.35" waitingTime="0.00" waitingCount="0" stopTime="0.00" timeLoss="5.08" rerouteNo="0" devices="vehroute_144017_416_0 tripinfo_144017_416_0 routing_144017_416_0" vType="pkw" speedFactor="0.93" vaporized=""/>
    <tripinfo id="174787_427_0" depart="25287.00" departLane="22959550#3_0" departPos="4.40" departSpeed="0.00" departDelay="0.00" arrival="25369.00" arrivalLane="28675510#7_0" arrivalPos="257.94" arrivalSpeed="11.71" duration="82.00" routeLength="757.45" waitingTime="0.00" waitingCount="0" stopTime="0.00" timeLoss="7.37" rerouteNo="1" devices="vehroute_174787_427_0 tripinfo_174787_427_0 routing_174787_427_0" vType="pkw" speedFactor="0.89" vaporized=""/>
    <tripinfo id="146391_416_0" depart="25313.00" departLane="-28675510#0_0" departPos="4.40" departSpeed="0.00" departDelay="0.00" arrival="25377.00" arrivalLane="28675510#7_0" arrivalPos="257.94" arrivalSpeed="12.71" duration="64.00" routeLength="752.27" waitingTime="0.00" waitingCount="0" stopTime="0.00" timeLoss="7.10" rerouteNo="1" devices="vehroute_146391_416_0 tripinfo_146391_416_0 routing_146391_416_0" vType="pkw" speedFactor="0.95" vaporized=""/>
    <tripinfo id="108769_400_0" depart="25356.00" departLane="-186623965#18_0" departPos="4.40" departSpeed="0.00" departDelay="0.00" arrival="25388.00" arrivalLane="-22917421#4_0" arrivalPos="96.26" arrivalSpeed="7.40" duration="32.00" routeLength="263.02" waitingTime="0.00" waitingCount="0" stopTime="0.00" timeLoss="5.08" rerouteNo="0" devices="vehroute_108769_400_0 tripinfo_108769_400_0 routing_108769_400_0" vType="pkw" speedFactor="0.93" vaporized=""/>
    <tripinfo id="96268_394_0" depart="25369.00" departLane="-186623965#18_0" departPos="4.40" departSpeed="0.00" departDelay="0.00" arrival="25403.00" arrivalLane="-22917421#4_0" arrivalPos="96.26" arrivalSpeed="5.91" duration="34.00" routeLength="263.02" waitingTime="0.00" waitingCount="0" stopTime="0.00" timeLoss="5.26" rerouteNo="0" devices="vehroute_96268_394_0 tripinfo_96268_394_0 routing_96268_394_0" vType="pkw" speedFactor="0.85" vaporized=""/>
    <tripinfo id="164277_422_0" depart="25343.00" departLane="23285888#0_0" departPos="4.40" departSpeed="0.00" departDelay="0.00" arrival="25417.00" arrivalLane="297047309#0_0" arrivalPos="91.17" arrivalSpeed="10.10" duration="74.00" routeLength="518.80" waitingTime="0.00" waitingCount="0" stopTime="0.00" timeLoss="8.05" rerouteNo="1" devices="vehroute_164277_422_0 tripinfo_164277_422_0 routing_164277_422_0" vType="pkw" speedFactor="0.82" vaporized=""/>
    <tripinfo id="83049_390_0" depart="25408.00" departLane="-4936412_0" departPos="4.40" departSpeed="0.00" departDelay="0.00" arrival="25428.00" arrivalLane="8716827#0_0" arrivalPos="109.12" arrivalSpeed="8.16" duration="20.00" routeLength="148.59" waitingTime="0.00" waitingCount="0" stopTime="0.00" timeLoss="3.63" rerouteNo="0" devices="vehroute_83049_390_0 tripinfo_83049_390_0 routing_83049_390_0" vType="pkw" speedFactor="1.04" vaporized=""/>
    <tripinfo id="67978_381_0" depart="25412.00" departLane="-4936412_0" departPos="4.40" departSpeed="0.00" departDelay="0.00" arrival="25432.00" arrivalLane="8716827#0_0" arrivalPos="109.12" arrivalSpeed="8.71" duration="20.00" routeLength="148.59" waitingTime="0.00" waitingCount="0" stopTime="0.00" timeLoss="4.38" rerouteNo="0" devices="vehroute_67978_381_0 tripinfo_67978_381_0 routing_67978_381_0" vType="pkw" speedFactor="1.05" vaporized=""/>
    <tripinfo id="164388_422_0" depart="25405.00" departLane="-186623965#18_0" departPos="4.40" departSpeed="0.00" departDelay="0.00" arrival="25436.00" arrivalLane="-22917421#4_0" arrivalPos="96.26" arrivalSpeed="7.12" duration="31.00" routeLength="263.02" waitingTime="0.00" waitingCount="0" stopTime="0.00" timeLoss="5.09" rerouteNo="0" devices="vehroute_164388_422_0 tripinfo_164388_422_0 routing_164388_422_0" vType="pkw" speedFactor="0.96" vaporized=""/>
    <tripinfo id="179907_430_0" depart="25383.00" departLane="23283470#0_0" departPos="4.40" departSpeed="0.00" departDelay="0.00" arrival="25442.00" arrivalLane="23283579#1_0" arrivalPos="22.22" arrivalSpeed="14.41" duration="59.00" routeLength="531.05" waitingTime="0.00" waitingCount="0" stopTime="0.00" timeLoss="9.38" rerouteNo="1" devices="vehroute_179907_430_0 tripinfo_179907_430_0 routing_179907_430_0" vType="pkw" speedFactor="1.11" vaporized=""/>
    <tripinfo id="154646_420_0" depart="25419.00" departLane="25166682#0_0" departPos="4.40" departSpeed="0.00" departDelay="0.00" arrival="25444.00" arrivalLane="323450710#0_0" arrivalPos="95.59" arrivalSpeed="14.93" duration="25.00" routeLength="289.69" waitingTime="0.00" waitingCount="0" stopTime="0.00" timeLoss="5.87" rerouteNo="1" devices="vehroute_154646_420_0 tripinfo_154646_420_0 routing_154646_420_0" vType="pkw" speedFactor="1.09" vaporized=""/>
    <tripinfo id="148419_417_0" depart="25363.00" departLane="133081987#3_0" departPos="4.40" departSpeed="0.00" departDelay="0.00" arrival="25446.00" arrivalLane="297047309#0_0" arrivalPos="91.17" arrivalSpeed="13.79" duration="83.00" routeLength="785.73" waitingTime="0.00" waitingCount="0" stopTime="0.00" timeLoss="8.99" rerouteNo="1" devices="vehroute_148419_417_0 tripinfo_148419_417_0 routing_148419_417_0" vType="pkw" speedFactor="1.01" vaporized=""/>
    <tripinfo id="118988_405_0" depart="25417.00" departLane="-186623965#18_0" departPos="4.40" departSpeed="0.00" departDelay="2.00" arrival="25453.00" arrivalLane="-22917421#4_0" arrivalPos="96.26" arrivalSpeed="5.66" duration="36.00" routeLength="263.02" waitingTime="0.00" waitingCount="0" stopTime="0.00" timeLoss="5.37" rerouteNo="0" devices="vehroute_118988_405_0 tripinfo_118988_405_0 routing_118988_405_0" vType="pkw" speedFactor="0.80" vaporized=""/>
    <tripinfo id="122677_406_0" depart="25441.00" departLane="-4936412_0" departPos="4.40" departSpeed="0.00" departDelay="0.00" arrival="25458.00" arrivalLane="8716827#0_0" arrivalPos="109.12" arrivalSpeed="9.72" duration="17.00" routeLength="148.59" waitingTime="0.00" waitingCount="0" stopTime="0.00" timeLoss="3.77" rerouteNo="0" devices="vehroute_122677_406_0 tripinfo_122677_406_0 routing_122677_406_0" vType="pkw" speedFactor="1.26" vaporized=""/>
    <tripinfo id="175131_428_0" depart="25328.00" departLane="23840713#2_0" departPos="4.40" departSpeed="0.00" departDelay="0.00" arrival="25459.00" arrivalLane="42925825#0_0" arrivalPos="254.17" arrivalSpeed="11.35" duration="131.00" routeLength="1254.72" waitingTime="0.00" waitingCount="0" stopTime="0.00" timeLoss="11.70" rerouteNo="1" devices="vehroute_175131_428_0 tripinfo_175131_428_0 routing_175131_428_0" vType="pkw" speedFactor="0.91" vaporized=""/>
    <tripinfo id="145712_416_0" depart="25405.00" departLane="-28675510#0_0" departPos="4.40" departSpeed="0.00" departDelay="0.00" arrival="25469.00" arrivalLane="28675510#7_0" arrivalPos="257.94" arrivalSpeed="12.00" duration="64.00" routeLength="752.27" waitingTime="0.00" waitingCount="0" stopTime="0.00" timeLoss="6.91" rerouteNo="1" devices="vehroute_145712_416_0 tripinfo_145712_416_0 routing_145712_416_0" vType="pkw" speedFactor="0.95" vaporized=""/>
    <tripinfo id="166238_424_0" depart="25449.00" departLane="42925825#0_0" departPos="4.40" departSpeed="0.00" departDelay="0.00" arrival="25472.00" arrivalLane="42925825#0_0" arrivalPos="254.17" arrivalSpeed="12.84" duration="23.00" routeLength="249.77" waitingTime="0.00" waitingCount="0" stopTime="0.00" timeLoss="4.08" rerouteNo="1" devices="vehroute_166238_424_0 tripinfo_166238_424_0 routing_166238_424_0" vType="pkw" speedFactor="0.99" vaporized=""/>
    <tripinfo id="139487_413_0" depart="25456.00" departLane="-4936412_0" departPos="4.40" departSpeed="0.00" departDelay="0.00" arrival="25475.00" arrivalLane="8716827#0_0" arrivalPos="109.12" arrivalSpeed="10.01" duration="19.00" routeLength="148.59" waitingTime="0.00" waitingCount="0" stopTime="0.00" timeLoss="4.75" rerouteNo="0" devices="vehroute_139487_413_0 tripinfo_139487_413_0 routing_139487_413_0" vType="pkw" speedFactor="1.20" vaporized=""/>
    <tripinfo id="148727_417_0" depart="25479.00" departLane="23283579#1_0" departPos="4.40" departSpeed="0.00" departDelay="0.00" arrival="25483.00" arrivalLane="23283579#1_0" arrivalPos="22.22" arrivalSpeed="7.63" duration="4.00" routeLength="17.82" waitingTime="0.00" waitingCount="0" stopTime="0.00" timeLoss="2.47" rerouteNo="1" devices="vehroute_148727_417_0 tripinfo_148727_417_0 routing_148727_417_0" vType="pkw" speedFactor="0.94" vaporized=""/>
    <tripinfo id="146495_416_0" depart="25369.00" departLane="23840712#0_0" departPos="4.40" departSpeed="0.00" departDelay="0.00" arrival="25485.00" arrivalLane="-186623965#14_0" arrivalPos="159.69" arrivalSpeed="12.94" duration="116.00" routeLength="1176.49" waitingTime="0.00" waitingCount="0" stopTime="0.00" timeLoss="9.91" rerouteNo="1" devices="vehroute_146495_416_0 tripinfo_146495_416_0 routing_146495_416_0" vType="pkw" speedFactor="0.98" vaporized=""/>
    <tripinfo id="171631_426_0" depart="25415.00" departLane="23283470#0_0" departPos="4.40" departSpeed="0.00" departDelay="0.00" arrival="25487.00" arrivalLane="23283579#1_0" arrivalPos="22.22" arrivalSpeed="11.27" duration="72.00" routeLength="531.05" waitingTime="0.00" waitingCount="0" stopTime="0.00" timeLoss="9.80" rerouteNo="1" devices="vehroute_171631_426_0 tripinfo_171631_426_0 routing_171631_426_0" vType="pkw" speedFactor="0.87" vaporized=""/>
    <tripinfo id="169793_426_0" depart="25405.00" departLane="290365598#0_0" departPos="4.40" departSpeed="0.00" departDelay="0.00" arrival="25494.00" arrivalLane="-186623965#14_0" arrivalPos="159.69" arrivalSpeed="16.06" duration="89.00" routeLength="1074.79" waitingTime="0.00" waitingCount="0" stopTime="0.00" timeLoss="9.75" rerouteNo="1" devices="vehroute_169793_426_0 tripinfo_169793_426_0 routing_169793_426_0" vType="pkw" speedFactor="1.16" vaporized=""/>
    <tripinfo id="136088_411_0" depart="25475.00" departLane="-4936412_0" departPos="4.40" departSpeed="0.00" departDelay="0.00" arrival="25495.00" arrivalLane="8716827#0_0" arrivalPos="109.12" arrivalSpeed="8.54" duration="20.00" routeLength="148.59" waitingTime="0.00" waitingCount="0" stopTime="0.00" timeLoss="4.28" rerouteNo="0" devices="vehroute_136088_411_0 tripinfo_136088_411_0 routing_136088_411_0" vType="pkw" speedFactor="1.07" vaporized=""/>
    <tripinfo id="137017_412_0" depart="25466.00" departLane="-186623965#18_0" departPos="4.40" departSpeed="0.00" departDelay="0.00" arrival="25499.00" arrivalLane="-22917421#4_0" arrivalPos="96.26" arrivalSpeed="6.59" duration="33.00" routeLength="263.02" waitingTime="0.00" waitingCount="0" stopTime="0.00" timeLoss="5.25" rerouteNo="0" devices="vehroute_137017_412_0 tripinfo_137017_412_0 routing_137017_412_0" vType="pkw" speedFactor="0.88" vaporized=""/>
    <tripinfo id="110175_401_0" depart="25490.00" departLane="-4936412_0" departPos="4.40" departSpeed="0.00" departDelay="0.00" arrival="25505.00" arrivalLane="155723703#0_0" arrivalPos="92.60" arrivalSpeed="12.96" duration="15.00" routeLength="132.82" waitingTime="0.00" waitingCount="0" stopTime="0.00" timeLoss="5.27" rerouteNo="0" devices="vehroute_110175_401_0 tripinfo_110175_401_0 routing_110175_401_0" vType="pkw" speedFactor="1.02" vaporized=""/>
    <tripinfo id="115107_403_0" depart="25488.00" departLane="-4936412_0" departPos="4.40" departSpeed="0.00" departDelay="0.00" arrival="25508.00" arrivalLane="8716827#0_0" arrivalPos="109.12" arrivalSpeed="8.24" duration="20.00" routeLength="148.59" waitingTime="0.00" waitingCount="0" stopTime="0.00" timeLoss="3.19" rerouteNo="0" devices="vehroute_115107_403_0 tripinfo_115107_403_0 routing_115107_403_0" vType="pkw" speedFactor="1.02" vaporized=""/>
    <tripinfo id="82749_390_0" depart="25496.00" departLane="-4936412_0" departPos="4.40" departSpeed="0.00" departDelay="0.00" arrival="25511.00" arrivalLane="155723703#0_0" arrivalPos="92.60" arrivalSpeed="12.26" duration="15.00" routeLength="132.82" waitingTime="0.00" waitingCount="0" stopTime="0.00" timeLoss="4.76" rerouteNo="0" devices="vehroute_82749_390_0 tripinfo_82749_390_0 routing_82749_390_0" vType="pkw" speedFactor="0.93" vaporized=""/>
    <tripinfo id="168963_425_0" depart="25422.00" departLane="-28675493_0" departPos="4.40" departSpeed="0.00" departDelay="0.00" arrival="25513.00" arrivalLane="23283579#1_0" arrivalPos="22.22" arrivalSpeed="12.77" duration="91.00" routeLength="809.74" waitingTime="0.00" waitingCount="0" stopTime="0.00" timeLoss="10.47" rerouteNo="1" devices="vehroute_168963_425_0 tripinfo_168963_425_0 routing_168963_425_0" vType="pkw" speedFactor="0.97" vaporized=""/>
    <tripinfo id="149528_417_0" depart="25414.00" departLane="-23840712#0_0" departPos="4.40" departSpeed="0.00" departDelay="0.00" arrival="25519.00" arrivalLane="28675510#7_0" arrivalPos="257.94" arrivalSpeed="12.33" duration="105.00" routeLength="919.80" waitingTime="0.00" waitingCount="0" stopTime="0.00" timeLoss="10.69" rerouteNo="1" devices="vehroute_149528_417_0 tripinfo_149528_417_0 routing_149528_417_0" vType="pkw" speedFactor="0.92" vaporized=""/>
    <tripinfo id="104777_398_0" depart="25500.00" departLane="-4936412_0" departPos="4.40" departSpeed="0.00" departDelay="0.00" arrival="25520.00" arrivalLane="8716827#0_0" arrivalPos="109.12" arrivalSpeed="8.41" duration="20.00" routeLength="148.59" waitingTime="0.00" waitingCount="0" stopTime="0.00" timeLoss="4.62" rerouteNo="0" devices="vehroute_104777_398_0 tripinfo_104777_398_0 routing_104777_398_0" vType="pkw" speedFactor="1.07" vaporized=""/>
    <tripinfo id="161682_421_0" depart="25419.00" departLane="-23840712#0_0" departPos="4.40" departSpeed="0.00" departDelay="0.00" arrival="25538.00" arrivalLane="28675510#7_0" arrivalPos="257.94" arrivalSpeed="10.36" duration="119.00" routeLength="919.80" waitingTime="0.00" waitingCount="0" stopTime="0.00" timeLoss="12.65" rerouteNo="1" devices="vehroute_161682_421_0 tripinfo_161682_421_0 routing_161682_421_0" vType="pkw" speedFactor="0.81" vaporized=""/>
    <tripinfo id="177623_429_0" depart="25497.00" departLane="23647118_0" departPos="4.40" departSpeed="0.00" departDelay="0.00" arrival="25544.00" arrivalLane="297047309#0_0" arrivalPos="91.17" arrivalSpeed="12.83" duration="47.00" routeLength="408.32" waitingTime="0.00" waitingCount="0" stopTime="0.00" timeLoss="6.56" rerouteNo="1" devices="vehroute_177623_429_0 tripinfo_177623_429_0 routing_177623_429_0" vType="pkw" speedFactor="1.01" vaporized=""/>
    <tripinfo id="171497_426_0" depart="25456.00" departLane="23647126_0" departPos="4.40" departSpeed="0.00" departDelay="0.00" arrival="25546.00" arrivalLane="23283579#1_0" arrivalPos="22.22" arrivalSpeed="13.25" duration="90.00" routeLength="761.84" waitingTime="0.00" waitingCount="0" stopTime="0.00" timeLoss="11.09" rerouteNo="1" devices="vehroute_171497_426_0 tripinfo_171497_426_0 routing_171497_426_0" vType="pkw" speedFactor="1.05" vaporized=""/>
    <tripinfo id="155960_420_0" depart="25521.00" departLane="-23283472#2_0" departPos="4.40" departSpeed="0.00" departDelay="0.00" arrival="25563.00" arrivalLane="23283436_0" arrivalPos="65.76" arrivalSpeed="14.35" duration="42.00" routeLength="365.77" waitingTime="0.00" waitingCount="0" stopTime="0.00" timeLoss="8.82" rerouteNo="1" devices="vehroute_155960_420_0 tripinfo_155960_420_0 routing_155960_420_0" vType="pkw" speedFactor="1.07" vaporized=""/>
    <tripinfo id="156093_420_0" depart="25584.00" departLane="23283579#1_0" departPos="4.40" departSpeed="0.00" departDelay="0.00" arrival="25589.00" arrivalLane="23283579#1_0" arrivalPos="22.22" arrivalSpeed="9.31" duration="5.00" routeLength="17.82" waitingTime="0.00" waitingCount="0" stopTime="0.00" timeLoss="2.95" rerouteNo="1" devices="vehroute_156093_420_0 tripinfo_156093_420_0 routing_156093_420_0" vType="pkw" speedFactor="0.95" vaporized=""/>
    <tripinfo id="160078_421_0" depart="25575.00" departLane="-4936412_0" departPos="4.40" departSpeed="0.00" departDelay="0.00" arrival="25594.00" arrivalLane="8716827#0_0" arrivalPos="109.12" arrivalSpeed="8.97" duration="19.00" routeLength="148.59" waitingTime="0.00" waitingCount="0" stopTime="0.00" timeLoss="4.09" rerouteNo="0" devices="vehroute_160078_421_0 tripinfo_160078_421_0 routing_160078_421_0" vType="pkw" speedFactor="1.11" vaporized=""/>
    <tripinfo id="119014_405_0" depart="25580.00" departLane="132042183_0" departPos="4.40" departSpeed="0.00" departDelay="0.00" arrival="25595.00" arrivalLane="-23283472#2_0" arrivalPos="70.88" arrivalSpeed="7.15" duration="15.00" routeLength="103.30" waitingTime="0.00" waitingCount="0" stopTime="0.00" timeLoss="2.20" rerouteNo="0" devices="vehroute_119014_405_0 tripinfo_119014_405_0 routing_119014_405_0" vType="pkw" speedFactor="0.98" vaporized=""/>