<?xml version="1.0" encoding="UTF-8"?>

<!-- generated on 2025-05-20 16:32:05 by Eclipse SUMO sumo Version 1.20.0
<configuration xmlns:xsi="http://www.w3.org/2001/XMLSchema-instance" xsi:noNamespaceSchemaLocation="http://sumo.dlr.de/xsd/sumoConfiguration.xsd">

    <input>
        <net-file value="resco_benchmark\environments/ingolstadt21/ingolstadt21.net.xml"/>
        <route-files value="resco_benchmark\environments/ingolstadt21/ingolstadt21.rou.xml"/>
    </input>

    <output>
        <tripinfo-output value="C:\Users\skang\Desktop\최석환\강의\무인항공딥러닝개론\results\MAXPRESSURE-tr0-ingolstadt21-21-mplight-wait\tripinfo_66.xml"/>
        <tripinfo-output.write-unfinished value="true"/>
        <vehroute-output value="C:\Users\skang\Desktop\최석환\강의\무인항공딥러닝개론\results\MAXPRESSURE-tr0-ingolstadt21-21-mplight-wait\route_66.xml"/>
        <vehroute-output.sorted value="True"/>
        <vehroute-output.write-unfinished value="True"/>
        <collision-output value="C:\Users\skang\Desktop\최석환\강의\무인항공딥러닝개론\results\MAXPRESSURE-tr0-ingolstadt21-21-mplight-wait\coll_66.xml"/>
        <statistic-output value="C:\Users\skang\Desktop\최석환\강의\무인항공딥러닝개론\results\MAXPRESSURE-tr0-ingolstadt21-21-mplight-wait\stats_66.xml"/>
    </output>

    <time>
        <begin value="57600"/>
        <end value="61200"/>
    </time>

    <processing>
        <time-to-teleport value="-1"/>
    </processing>

    <report>
        <no-warnings value="True"/>
        <no-step-log value="True"/>
    </report>

    <traci_server>
        <remote-port value="59808"/>
    </traci_server>

    <random_number>
        <random value="true"/>
    </random_number>

</configuration>
-->

<tripinfos xmlns:xsi="http://www.w3.org/2001/XMLSchema-instance" xsi:noNamespaceSchemaLocation="http://sumo.dlr.de/xsd/tripinfo_file.xsd">
    <tripinfo id="h15454c2:3" depart="57612.00" departLane="24608844_1" departPos="5.10" departSpeed="0.00" departDelay="0.50" arrival="57652.00" arrivalLane="32978638#0_1" arrivalPos="49.29" arrivalSpeed="13.91" duration="40.00" routeLength="354.79" waitingTime="0.00" waitingCount="0" stopTime="0.00" timeLoss="6.42" rerouteNo="1" devices="vehroute_h15454c2:3 tripinfo_h15454c2:3 routing_h15454c2:3" vType="default_016" speedFactor="1.02" vaporized=""/>
    <tripinfo id="carIn60260:1" depart="57606.00" departLane="315358254#0_1" departPos="5.10" departSpeed="0.00" departDelay="0.90" arrival="57669.00" arrivalLane="399835085#1_1" arrivalPos="212.23" arrivalSpeed="6.11" duration="63.00" routeLength="430.98" waitingTime="0.00" waitingCount="0" stopTime="0.00" timeLoss="8.40" rerouteNo="1" devices="vehroute_carIn60260:1 tripinfo_carIn60260:1 routing_carIn60260:1" vType="default_016" speedFactor="0.84" vaporized=""/>
    <tripinfo id="carIn53971:1" depart="57640.00" departLane="272042143_1" departPos="5.10" departSpeed="0.00" departDelay="0.80" arrival="57700.00" arrivalLane="24634414#1_1" arrivalPos="162.19" arrivalSpeed="6.29" duration="60.00" routeLength="493.04" waitingTime="0.00" waitingCount="0" stopTime="0.00" timeLoss="8.85" rerouteNo="1" devices="vehroute_carIn53971:1 tripinfo_carIn53971:1 routing_carIn53971:1" vType="default_016" speedFactor="0.90" vaporized=""/>
    <tripinfo id="h12244c1:3" depart="57612.00" departLane="315358244_1" departPos="5.10" departSpeed="0.00" departDelay="0.40" arrival="57709.00" arrivalLane="386687235_1" arrivalPos="80.84" arrivalSpeed="13.05" duration="97.00" routeLength="1186.14" waitingTime="0.00" waitingCount="0" stopTime="0.00" timeLoss="8.64" rerouteNo="1" devices="vehroute_h12244c1:3 tripinfo_h12244c1:3 routing_h12244c1:3" vType="default_016" speedFactor="0.98" vaporized=""/>
    <tripinfo id="S5R_frequency1.2" depart="57612.00" departLane="315358250#0_1" departPos="12.10" departSpeed="0.00" departDelay="0.40" arrival="57712.00" arrivalLane="386687235_1" arrivalPos="80.84" arrivalSpeed="13.78" duration="100.00" routeLength="1115.62" waitingTime="0.00" waitingCount="0" stopTime="0.00" timeLoss="17.99" rerouteNo="1" devices="vehroute_S5R_frequency1.2 tripinfo_S5R_frequency1.2 routing_S5R_frequency1.2" vType="bus" speedFactor="1.00" vaporized=""/>
    <tripinfo id="carIn80064:1" depart="57603.00" departLane="128361109#1_1" departPos="5.10" departSpeed="0.00" departDelay="0.40" arrival="57720.00" arrivalLane="-315358254#1_1" arrivalPos="137.16" arrivalSpeed="13.38" duration="117.00" routeLength="1587.97" waitingTime="3.00" waitingCount="1" stopTime="0.00" timeLoss="24.97" rerouteNo="1" devices="vehroute_carIn80064:1 tripinfo_carIn80064:1 routing_carIn80064:1" vType="default_016" speedFactor="0.97" vaporized=""/>
    <tripinfo id="carIn22761:1" depart="57616.00" departLane="-306240162#1_0" departPos="5.10" departSpeed="0.00" departDelay="2.10" arrival="57723.00" arrivalLane="399835085#1_1" arrivalPos="212.23" arrivalSpeed="7.86" duration="107.00" routeLength="1093.26" waitingTime="11.00" waitingCount="1" stopTime="0.00" timeLoss="29.76" rerouteNo="1" devices="vehroute_carIn22761:1 tripinfo_carIn22761:1 routing_carIn22761:1" vType="default_016" speedFactor="1.01" vaporized=""/>
    <tripinfo id="h7800c1:5" depart="57696.00" departLane="-447569998#1_1" departPos="5.10" departSpeed="0.00" departDelay="0.00" arrival="57723.00" arrivalLane="-447569998#1_1" arrivalPos="180.76" arrivalSpeed="7.34" duration="27.00" routeLength="175.66" waitingTime="0.00" waitingCount="0" stopTime="0.00" timeLoss="3.93" rerouteNo="1" devices="vehroute_h7800c1:5 tripinfo_h7800c1:5 routing_h7800c1:5" vType="default_016" speedFactor="0.92" vaporized=""/>
    <tripinfo id="h9563c2:5" depart="57631.00" departLane="315358244_1" departPos="5.10" departSpeed="0.00" departDelay="0.70" arrival="57725.00" arrivalLane="386687235_1" arrivalPos="80.84" arrivalSpeed="13.19" duration="94.00" routeLength="1186.14" waitingTime="0.00" waitingCount="0" stopTime="0.00" timeLoss="8.40" rerouteNo="1" devices="vehroute_h9563c2:5 tripinfo_h9563c2:5 routing_h9563c2:5" vType="default_016" speedFactor="1.01" vaporized=""/>
    <tripinfo id="h7181c1:1" depart="57660.00" departLane="315358254#0_1" departPos="5.10" departSpeed="0.00" departDelay="0.10" arrival="57729.00" arrivalLane="306240162#0_0" arrivalPos="220.43" arrivalSpeed="17.65" duration="69.00" routeLength="932.35" waitingTime="10.00" waitingCount="1" stopTime="0.00" timeLoss="22.57" rerouteNo="1" devices="vehroute_h7181c1:1 tripinfo_h7181c1:1 routing_h7181c1:1" vType="default_016" speedFactor="1.10" vaporized=""/>
    <tripinfo id="h3688c1:1" depart="57625.00" departLane="201201950#1_1" departPos="5.10" departSpeed="0.00" departDelay="0.00" arrival="57733.00" arrivalLane="32978638#0_1" arrivalPos="49.29" arrivalSpeed="12.35" duration="108.00" routeLength="1089.75" waitingTime="6.00" waitingCount="1" stopTime="0.00" timeLoss="19.81" rerouteNo="1" devices="vehroute_h3688c1:1 tripinfo_h3688c1:1 routing_h3688c1:1" vType="default_016" speedFactor="0.90" vaporized=""/>
    <tripinfo id="h3568c1:3" depart="57656.00" departLane="266565295#5_1" departPos="5.10" departSpeed="0.00" departDelay="0.80" arrival="57737.00" arrivalLane="-24634415_1" arrivalPos="62.03" arrivalSpeed="12.51" duration="81.00" routeLength="807.40" waitingTime="0.00" waitingCount="0" stopTime="0.00" timeLoss="12.27" rerouteNo="1" devices="vehroute_h3568c1:3 tripinfo_h3568c1:3 routing_h3568c1:3" vType="default_016" speedFactor="0.94" vaporized=""/>
    <tripinfo id="carIn30817:1" depart="57681.00" departLane="315358244_1" departPos="5.10" departSpeed="0.00" departDelay="0.20" arrival="57749.00" arrivalLane="447569997#1_1" arrivalPos="180.93" arrivalSpeed="8.97" duration="68.00" routeLength="718.04" waitingTime="1.00" waitingCount="1" stopTime="0.00" timeLoss="11.59" rerouteNo="1" devices="vehroute_carIn30817:1 tripinfo_carIn30817:1 routing_carIn30817:1" vType="default_016" speedFactor="1.10" vaporized=""/>
    <tripinfo id="h317c2:1" depart="57707.00" departLane="-32978638#0_1" departPos="5.10" departSpeed="0.00" departDelay="0.10" arrival="57754.00" arrivalLane="-266565295#5_1" arrivalPos="172.76" arrivalSpeed="14.29" duration="47.00" routeLength="370.53" waitingTime="12.00" waitingCount="1" stopTime="0.00" timeLoss="21.06" rerouteNo="1" devices="vehroute_h317c2:1 tripinfo_h317c2:1 routing_h317c2:1" vType="default_016" speedFactor="1.06" vaporized=""/>
    <tripinfo id="carIn118591:1" depart="57689.00" departLane="315358244_1" departPos="5.10" departSpeed="0.00" departDelay="0.20" arrival="57764.00" arrivalLane="386687235_1" arrivalPos="80.84" arrivalSpeed="17.32" duration="75.00" routeLength="1186.14" waitingTime="0.00" waitingCount="0" stopTime="0.00" timeLoss="8.95" rerouteNo="1" devices="vehroute_carIn118591:1 tripinfo_carIn118591:1 routing_carIn118591:1" vType="default_016" speedFactor="1.30" vaporized=""/>
    <tripinfo id="h645c1:1" depart="57622.00" departLane="266565295#5_1" departPos="5.10" departSpeed="0.00" departDelay="0.40" arrival="57769.00" arrivalLane="-315358244_1" arrivalPos="33.95" arrivalSpeed="13.82" duration="147.00" routeLength="1910.83" waitingTime="0.00" waitingCount="0" stopTime="0.00" timeLoss="11.11" rerouteNo="1" devices="vehroute_h645c1:1 tripinfo_h645c1:1 routing_h645c1:1" vType="default_016" speedFactor="1.02" vaporized=""/>
    <tripinfo id="h3154c1:1" depart="57658.00" departLane="24634507_1" departPos="5.10" departSpeed="0.00" departDelay="0.00" arrival="57775.00" arrivalLane="-266565295#5_1" arrivalPos="172.76" arrivalSpeed="12.88" duration="117.00" routeLength="1206.22" waitingTime="7.00" waitingCount="1" stopTime="0.00" timeLoss="22.96" rerouteNo="1" devices="vehroute_h3154c1:1 tripinfo_h3154c1:1 routing_h3154c1:1" vType="default_016" speedFactor="0.95" vaporized=""/>
    <tripinfo id="carIn12365:1" depart="57713.00" departLane="315358244_1" departPos="5.10" departSpeed="0.00" departDelay="0.50" arrival="57777.00" arrivalLane="447569997#1_1" arrivalPos="180.93" arrivalSpeed="8.14" duration="64.00" routeLength="718.04" waitingTime="0.00" waitingCount="0" stopTime="0.00" timeLoss="8.23" rerouteNo="1" devices="vehroute_carIn12365:1 tripinfo_carIn12365:1 routing_carIn12365:1" vType="default_016" speedFactor="1.11" vaporized=""/>
    <tripinfo id="h330c1:1" depart="57736.00" departLane="-32978638#0_1" departPos="5.10" departSpeed="0.00" departDelay="0.20" arrival="57786.00" arrivalLane="-266565295#5_1" arrivalPos="172.76" arrivalSpeed="12.44" duration="50.00" routeLength="370.53" waitingTime="13.00" waitingCount="1" stopTime="0.00" timeLoss="21.64" rerouteNo="1" devices="vehroute_h330c1:1 tripinfo_h330c1:1 routing_h330c1:1" vType="default_016" speedFactor="0.98" vaporized=""/>
    <tripinfo id="carIn27009:1" depart="57673.00" departLane="-447569998#1_1" departPos="5.10" departSpeed="0.00" departDelay="0.50" arrival="57790.00" arrivalLane="-26677539_1" arrivalPos="152.75" arrivalSpeed="7.26" duration="117.00" routeLength="699.63" waitingTime="11.00" waitingCount="1" stopTime="0.00" timeLoss="25.57" rerouteNo="1" devices="vehroute_carIn27009:1 tripinfo_carIn27009:1 routing_carIn27009:1" vType="default_015" speedFactor="0.92" vaporized=""/>
    <tripinfo id="carIn107084:1" depart="57601.00" departLane="124812856#0_1" departPos="5.10" departSpeed="0.00" departDelay="0.70" arrival="57793.00" arrivalLane="-128361102#1_1" arrivalPos="274.68" arrivalSpeed="12.98" duration="192.00" routeLength="2250.49" waitingTime="0.00" waitingCount="0" stopTime="0.00" timeLoss="19.83" rerouteNo="1" devices="vehroute_carIn107084:1 tripinfo_carIn107084:1 routing_carIn107084:1" vType="default_016" speedFactor="0.95" vaporized=""/>
    <tripinfo id="carIn77943:1" depart="57608.00" departLane="124812856#0_1" departPos="5.10" departSpeed="0.00" departDelay="2.50" arrival="57794.00" arrivalLane="-128361102#1_1" arrivalPos="274.68" arrivalSpeed="14.16" duration="186.00" routeLength="2250.49" waitingTime="0.00" waitingCount="0" stopTime="0.00" timeLoss="26.62" rerouteNo="1" devices="vehroute_carIn77943:1 tripinfo_carIn77943:1 routing_carIn77943:1" vType="default_016" speedFactor="1.03" vaporized=""/>
    <tripinfo id="h5979c1:5" depart="57669.00" departLane="399835085#1_1" departPos="5.10" departSpeed="0.00" departDelay="0.00" arrival="57794.00" arrivalLane="-315358254#1_1" arrivalPos="137.16" arrivalSpeed="12.42" duration="125.00" routeLength="659.33" waitingTime="34.00" waitingCount="1" stopTime="0.00" timeLoss="47.22" rerouteNo="1" devices="vehroute_h5979c1:5 tripinfo_h5979c1:5 routing_h5979c1:5" vType="default_016" speedFactor="0.94" vaporized=""/>
    <tripinfo id="carIn81046:1" depart="57611.00" departLane="124812856#0_1" departPos="5.10" departSpeed="0.00" departDelay="2.50" arrival="57796.00" arrivalLane="-128361102#1_1" arrivalPos="274.68" arrivalSpeed="14.60" duration="185.00" routeLength="2250.49" waitingTime="0.00" waitingCount="0" stopTime="0.00" timeLoss="30.58" rerouteNo="1" devices="vehroute_carIn81046:1 tripinfo_carIn81046:1 routing_carIn81046:1" vType="default_016" speedFactor="1.06" vaporized=""/>
    <tripinfo id="carIn77438:1" depart="57614.00" departLane="124812856#0_1" departPos="5.10" departSpeed="0.00" departDelay="1.10" arrival="57798.00" arrivalLane="-128361102#1_1" arrivalPos="274.68" arrivalSpeed="14.66" duration="184.00" routeLength="2250.49" waitingTime="0.00" waitingCount="0" stopTime="0.00" timeLoss="34.44" rerouteNo="1" devices="vehroute_carIn77438:1 tripinfo_carIn77438:1 routing_carIn77438:1" vType="default_016" speedFactor="1.10" vaporized=""/>
    <tripinfo id="carIn86816:1" depart="57617.00" departLane="128361102#0_1" departPos="5.10" departSpeed="0.00" departDelay="0.80" arrival="57799.00" arrivalLane="201956811#0_1" arrivalPos="40.40" arrivalSpeed="13.75" duration="182.00" routeLength="2067.33" waitingTime="10.00" waitingCount="1" stopTime="0.00" timeLoss="30.73" rerouteNo="1" devices="vehroute_carIn86816:1 tripinfo_carIn86816:1 routing_carIn86816:1" vType="default_016" speedFactor="1.00" vaporized=""/>
    <tripinfo id="carIn50326:1" depart="57651.00" departLane="128361102#0_1" departPos="5.10" departSpeed="0.00" departDelay="0.30" arrival="57802.00" arrivalLane="18809673#0_1" arrivalPos="473.56" arrivalSpeed="13.06" duration="151.00" routeLength="1591.07" waitingTime="4.00" waitingCount="1" stopTime="0.00" timeLoss="22.91" rerouteNo="1" devices="vehroute_carIn50326:1 tripinfo_carIn50326:1 routing_carIn50326:1" vType="default_016" speedFactor="1.01" vaporized=""/>
    <tripinfo id="carIn102915:1" depart="57643.00" departLane="128361102#0_1" departPos="5.10" departSpeed="0.00" departDelay="0.40" arrival="57805.00" arrivalLane="201956811#0_1" arrivalPos="40.40" arrivalSpeed="13.93" duration="162.00" routeLength="2067.33" waitingTime="0.00" waitingCount="0" stopTime="0.00" timeLoss="17.65" rerouteNo="1" devices="vehroute_carIn102915:1 tripinfo_carIn102915:1 routing_carIn102915:1" vType="default_016" speedFactor="1.05" vaporized=""/>
    <tripinfo id="h19804c1:3" depart="57617.00" departLane="124812856#0_1" departPos="5.10" departSpeed="0.00" departDelay="1.50" arrival="57806.00" arrivalLane="-128361102#1_1" arrivalPos="274.68" arrivalSpeed="12.34" duration="189.00" routeLength="2250.49" waitingTime="0.00" waitingCount="0" stopTime="0.00" timeLoss="18.38" rerouteNo="1" devices="vehroute_h19804c1:3 tripinfo_h19804c1:3 routing_h19804c1:3" vType="default_016" speedFactor="0.97" vaporized=""/>
    <tripinfo id="randUni33724:1" depart="57646.00" departLane="128361102#0_1" departPos="5.10" departSpeed="0.00" departDelay="1.20" arrival="57809.00" arrivalLane="201956811#0_1" arrivalPos="40.40" arrivalSpeed="13.41" duration="163.00" routeLength="2067.33" waitingTime="0.00" waitingCount="0" stopTime="0.00" timeLoss="18.26" rerouteNo="1" devices="vehroute_randUni33724:1 tripinfo_randUni33724:1 routing_randUni33724:1" vType="random_016" speedFactor="1.05" vaporized=""/>
    <tripinfo id="carIn82278:1" depart="57702.00" departLane="-306240162#1_0" departPos="5.10" departSpeed="0.00" departDelay="0.70" arrival="57809.00" arrivalLane="399835085#1_1" arrivalPos="212.23" arrivalSpeed="8.27" duration="107.00" routeLength="1093.26" waitingTime="12.00" waitingCount="3" stopTime="0.00" timeLoss="38.96" rerouteNo="1" devices="vehroute_carIn82278:1 tripinfo_carIn82278:1 routing_carIn82278:1" vType="default_016" speedFactor="1.14" vaporized=""/>
    <tripinfo id="h15382c1:3" depart="57626.00" departLane="124812856#0_1" departPos="5.10" departSpeed="0.00" departDelay="3.80" arrival="57812.00" arrivalLane="-128361102#1_1" arrivalPos="274.68" arrivalSpeed="13.44" duration="186.00" routeLength="2250.49" waitingTime="0.00" waitingCount="0" stopTime="0.00" timeLoss="23.49" rerouteNo="1" devices="vehroute_h15382c1:3 tripinfo_h15382c1:3 routing_h15382c1:3" vType="default_016" speedFactor="1.01" vaporized=""/>
    <tripinfo id="carIn129809:1" depart="57729.00" departLane="-447569998#1_1" departPos="5.10" departSpeed="0.00" departDelay="1.00" arrival="57813.00" arrivalLane="-315358244_1" arrivalPos="33.95" arrivalSpeed="14.49" duration="84.00" routeLength="706.49" waitingTime="10.00" waitingCount="2" stopTime="0.00" timeLoss="29.75" rerouteNo="1" devices="vehroute_carIn129809:1 tripinfo_carIn129809:1 routing_carIn129809:1" vType="default_015" speedFactor="1.12" vaporized=""/>
    <tripinfo id="carIn48184:1" depart="57613.00" departLane="-306240162#1_0" departPos="5.10" departSpeed="0.00" departDelay="0.70" arrival="57814.00" arrivalLane="386687235_1" arrivalPos="80.84" arrivalSpeed="11.94" duration="201.00" routeLength="2257.41" waitingTime="10.00" waitingCount="2" stopTime="0.00" timeLoss="36.32" rerouteNo="1" devices="vehroute_carIn48184:1 tripinfo_carIn48184:1 routing_carIn48184:1" vType="default_016" speedFactor="0.90" vaporized=""/>
    <tripinfo id="carIn82220:1" depart="57619.00" departLane="-306240162#1_0" departPos="5.10" departSpeed="0.00" departDelay="3.50" arrival="57814.00" arrivalLane="386687235_2" arrivalPos="80.84" arrivalSpeed="12.19" duration="195.00" routeLength="2257.41" waitingTime="8.00" waitingCount="1" stopTime="0.00" timeLoss="35.95" rerouteNo="1" devices="vehroute_carIn82220:1 tripinfo_carIn82220:1 routing_carIn82220:1" vType="default_016" speedFactor="0.93" vaporized=""/>
    <tripinfo id="carIn462:1" depart="57622.00" departLane="-306240162#1_0" departPos="5.10" departSpeed="0.00" departDelay="4.80" arrival="57815.00" arrivalLane="386687235_1" arrivalPos="80.84" arrivalSpeed="13.39" duration="193.00" routeLength="2257.41" waitingTime="8.00" waitingCount="1" stopTime="0.00" timeLoss="49.17" rerouteNo="1" devices="vehroute_carIn462:1 tripinfo_carIn462:1 routing_carIn462:1" vType="default_016" speedFactor="1.03" vaporized=""/>
    <tripinfo id="carIn116184:1" depart="57627.00" departLane="-306240162#1_0" departPos="5.10" departSpeed="0.00" departDelay="0.10" arrival="57816.00" arrivalLane="386687235_2" arrivalPos="80.84" arrivalSpeed="15.22" duration="189.00" routeLength="2257.41" waitingTime="9.00" waitingCount="2" stopTime="0.00" timeLoss="59.71" rerouteNo="1" devices="vehroute_carIn116184:1 tripinfo_carIn116184:1 routing_carIn116184:1" vType="default_016" speedFactor="1.15" vaporized=""/>
    <tripinfo id="carIn31257:1" depart="57630.00" departLane="-306240162#1_0" departPos="5.10" departSpeed="0.00" departDelay="1.60" arrival="57818.00" arrivalLane="386687235_2" arrivalPos="80.84" arrivalSpeed="12.58" duration="188.00" routeLength="2257.41" waitingTime="6.00" waitingCount="1" stopTime="0.00" timeLoss="29.89" rerouteNo="1" devices="vehroute_carIn31257:1 tripinfo_carIn31257:1 routing_carIn31257:1" vType="default_016" speedFactor="0.94" vaporized=""/>
    <tripinfo id="carIn12858:1" depart="57661.00" departLane="128361109#1_1" departPos="5.10" departSpeed="0.00" departDelay="0.90" arrival="57818.00" arrivalLane="399835085#1_1" arrivalPos="212.23" arrivalSpeed="6.69" duration="157.00" routeLength="1738.12" waitingTime="8.00" waitingCount="1" stopTime="0.00" timeLoss="37.17" rerouteNo="1" devices="vehroute_carIn12858:1 tripinfo_carIn12858:1 routing_carIn12858:1" vType="default_016" speedFactor="0.96" vaporized=""/>
    <tripinfo id="h16072c2:3" depart="57663.00" departLane="315358254#0_1" departPos="5.10" departSpeed="0.00" departDelay="2.50" arrival="57818.00" arrivalLane="386687235_1" arrivalPos="80.84" arrivalSpeed="11.28" duration="155.00" routeLength="1611.92" waitingTime="0.00" waitingCount="0" stopTime="0.00" timeLoss="20.43" rerouteNo="1" devices="vehroute_h16072c2:3 tripinfo_h16072c2:3 routing_h16072c2:3" vType="default_016" speedFactor="0.88" vaporized=""/>
    <tripinfo id="carIn46110:1" depart="57684.00" departLane="315358244_1" departPos="5.10" departSpeed="0.00" departDelay="1.20" arrival="57818.00" arrivalLane="32978638#0_1" arrivalPos="49.29" arrivalSpeed="15.62" duration="134.00" routeLength="1764.04" waitingTime="5.00" waitingCount="1" stopTime="0.00" timeLoss="25.35" rerouteNo="1" devices="vehroute_carIn46110:1 tripinfo_carIn46110:1 routing_carIn46110:1" vType="default_016" speedFactor="1.18" vaporized=""/>
    <tripinfo id="carIn107282:1" depart="57749.00" departLane="-447569998#1_1" departPos="5.10" departSpeed="0.00" departDelay="0.00" arrival="57826.00" arrivalLane="315358242#0_1" arrivalPos="165.37" arrivalSpeed="13.32" duration="77.00" routeLength="448.50" waitingTime="27.00" waitingCount="1" stopTime="0.00" timeLoss="34.67" rerouteNo="1" devices="vehroute_carIn107282:1 tripinfo_carIn107282:1 routing_carIn107282:1" vType="default_016" speedFactor="0.98" vaporized=""/>
    <tripinfo id="carIn3969:1" depart="57629.00" departLane="124812856#0_1" departPos="5.10" departSpeed="0.00" departDelay="5.30" arrival="57827.00" arrivalLane="-128361102#1_1" arrivalPos="274.68" arrivalSpeed="11.67" duration="198.00" routeLength="2250.49" waitingTime="0.00" waitingCount="0" stopTime="0.00" timeLoss="20.64" rerouteNo="1" devices="vehroute_carIn3969:1 tripinfo_carIn3969:1 routing_carIn3969:1" vType="default_016" speedFactor="0.93" vaporized=""/>
    <tripinfo id="carIn12152:1" depart="57647.00" departLane="24599188#0.94_1" departPos="5.10" departSpeed="0.00" departDelay="0.50" arrival="57827.00" arrivalLane="-315358254#1_1" arrivalPos="137.16" arrivalSpeed="13.36" duration="180.00" routeLength="2034.31" waitingTime="4.00" waitingCount="1" stopTime="0.00" timeLoss="23.50" rerouteNo="1" devices="vehroute_carIn12152:1 tripinfo_carIn12152:1 routing_carIn12152:1" vType="default_016" speedFactor="1.01" vaporized=""/>
    <tripinfo id="carIn56649:1" depart="57632.00" departLane="124812856#0_1" departPos="5.10" departSpeed="0.00" departDelay="8.10" arrival="57829.00" arrivalLane="-128361102#1_1" arrivalPos="274.68" arrivalSpeed="12.12" duration="197.00" routeLength="2250.49" waitingTime="0.00" waitingCount="0" stopTime="0.00" timeLoss="21.28" rerouteNo="1" devices="vehroute_carIn56649:1 tripinfo_carIn56649:1 routing_carIn56649:1" vType="default_016" speedFactor="0.94" vaporized=""/>
    <tripinfo id="carIn81860:1" depart="57712.00" departLane="128361102#0_1" departPos="5.10" departSpeed="0.00" departDelay="0.60" arrival="57829.00" arrivalLane="-24634517#17_1" arrivalPos="6.43" arrivalSpeed="6.91" duration="117.00" routeLength="1229.64" waitingTime="7.00" waitingCount="2" stopTime="0.00" timeLoss="29.80" rerouteNo="1" devices="vehroute_carIn81860:1 tripinfo_carIn81860:1 routing_carIn81860:1" vType="default_016" speedFactor="1.03" vaporized=""/>
    <tripinfo id="carIn28951:1" depart="57606.00" departLane="10425609#0_1" departPos="5.10" departSpeed="0.00" departDelay="0.20" arrival="57830.00" arrivalLane="-128361102#1_1" arrivalPos="274.68" arrivalSpeed="13.53" duration="224.00" routeLength="2113.04" waitingTime="38.00" waitingCount="1" stopTime="0.00" timeLoss="75.97" rerouteNo="1" devices="vehroute_carIn28951:1 tripinfo_carIn28951:1 routing_carIn28951:1" vType="default_016" speedFactor="1.05" vaporized=""/>
    <tripinfo id="h20540c1:1" depart="57634.00" departLane="10425609#0_1" departPos="5.10" departSpeed="0.00" departDelay="0.50" arrival="57832.00" arrivalLane="-128361102#1_1" arrivalPos="274.68" arrivalSpeed="13.80" duration="198.00" routeLength="2113.04" waitingTime="11.00" waitingCount="1" stopTime="0.00" timeLoss="50.18" rerouteNo="1" devices="vehroute_h20540c1:1 tripinfo_h20540c1:1 routing_h20540c1:1" vType="default_016" speedFactor="1.05" vaporized=""/>
    <tripinfo id="h17549c1:1" depart="57680.00" departLane="-447569998#1_1" departPos="5.10" departSpeed="0.00" departDelay="0.00" arrival="57832.00" arrivalLane="-315358254#1_1" arrivalPos="137.16" arrivalSpeed="14.75" duration="152.00" routeLength="1746.60" waitingTime="7.00" waitingCount="1" stopTime="0.00" timeLoss="23.96" rerouteNo="1" devices="vehroute_h17549c1:1 tripinfo_h17549c1:1 routing_h17549c1:1" vType="default_016" speedFactor="1.07" vaporized=""/>
    <tripinfo id="h5216c1:1" depart="57664.00" departLane="224892339#0_1" departPos="5.10" departSpeed="0.00" departDelay="0.00" arrival="57833.00" arrivalLane="386687235_2" arrivalPos="80.84" arrivalSpeed="11.64" duration="169.00" routeLength="1823.78" waitingTime="0.00" waitingCount="0" stopTime="0.00" timeLoss="24.22" rerouteNo="1" devices="vehroute_h5216c1:1 tripinfo_h5216c1:1 routing_h5216c1:1" vType="default_016" speedFactor="0.89" vaporized=""/>
    <tripinfo id="carIn17767:1" depart="57638.00" departLane="124812856#0_1" departPos="5.10" departSpeed="0.00" departDelay="10.80" arrival="57834.00" arrivalLane="-128361102#1_1" arrivalPos="274.68" arrivalSpeed="13.72" duration="196.00" routeLength="2250.49" waitingTime="8.00" waitingCount="1" stopTime="0.00" timeLoss="42.02" rerouteNo="1" devices="vehroute_carIn17767:1 tripinfo_carIn17767:1 routing_carIn17767:1" vType="default_016" speedFactor="1.07" vaporized=""/>
    <tripinfo id="carIn101568:1" depart="57638.00" departLane="-306240162#1_0" departPos="5.10" departSpeed="0.00" departDelay="0.50" arrival="57834.00" arrivalLane="386687235_1" arrivalPos="80.84" arrivalSpeed="11.43" duration="196.00" routeLength="2257.41" waitingTime="6.00" waitingCount="1" stopTime="0.00" timeLoss="28.79" rerouteNo="1" devices="vehroute_carIn101568:1 tripinfo_carIn101568:1 routing_carIn101568:1" vType="default_016" speedFactor="0.89" vaporized=""/>
    <tripinfo id="h11868c1:5" depart="57700.00" departLane="315358254#0_1" departPos="5.10" departSpeed="0.00" departDelay="0.10" arrival="57834.00" arrivalLane="386687235_2" arrivalPos="80.84" arrivalSpeed="15.04" duration="134.00" routeLength="1611.92" waitingTime="0.00" waitingCount="0" stopTime="0.00" timeLoss="26.11" rerouteNo="1" devices="vehroute_h11868c1:5 tripinfo_h11868c1:5 routing_h11868c1:5" vType="default_016" speedFactor="1.09" vaporized=""/>
    <tripinfo id="50R_frequency3.17" depart="57674.00" departLane="-18809673#6_1" departPos="12.10" departSpeed="0.00" departDelay="0.70" arrival="57836.00" arrivalLane="201956811#0_1" arrivalPos="40.40" arrivalSpeed="12.19" duration="162.00" routeLength="1954.47" waitingTime="0.00" waitingCount="0" stopTime="0.00" timeLoss="17.07" rerouteNo="1" devices="vehroute_50R_frequency3.17 tripinfo_50R_frequency3.17 routing_50R_frequency3.17" vType="bus" speedFactor="1.00" vaporized=""/>
    <tripinfo id="h6541c1:3" depart="57727.00" departLane="201950247#3_1" departPos="5.10" departSpeed="0.00" departDelay="0.00" arrival="57838.00" arrivalLane="32978638#0_1" arrivalPos="49.29" arrivalSpeed="14.66" duration="111.00" routeLength="1176.17" waitingTime="5.00" waitingCount="1" stopTime="0.00" timeLoss="21.31" rerouteNo="1" devices="vehroute_h6541c1:3 tripinfo_h6541c1:3 routing_h6541c1:3" vType="default_016" speedFactor="1.14" vaporized=""/>
    <tripinfo id="h3326c1:2" depart="57656.00" departLane="22716069#0_1" departPos="5.10" departSpeed="0.00" departDelay="0.00" arrival="57849.00" arrivalLane="24634517#13_1" arrivalPos="111.62" arrivalSpeed="9.92" duration="193.00" routeLength="1312.81" waitingTime="45.00" waitingCount="1" stopTime="0.00" timeLoss="63.23" rerouteNo="1" devices="vehroute_h3326c1:2 tripinfo_h3326c1:2 routing_h3326c1:2" vType="default_016" speedFactor="0.75" vaporized=""/>
    <tripinfo id="randUni10474:1" depart="57605.00" departLane="124812856#0_1" departPos="5.10" departSpeed="0.00" departDelay="0.20" arrival="57851.00" arrivalLane="306240162#0_0" arrivalPos="220.43" arrivalSpeed="15.79" duration="246.00" routeLength="3049.32" waitingTime="10.00" waitingCount="1" stopTime="0.00" timeLoss="50.26" rerouteNo="1" devices="vehroute_randUni10474:1 tripinfo_randUni10474:1 routing_randUni10474:1" vType="random_016" speedFactor="1.01" vaporized=""/>
    <tripinfo id="carIn75660:1" depart="57679.00" departLane="128361109#1_1" departPos="5.10" departSpeed="0.00" departDelay="3.40" arrival="57853.00" arrivalLane="386687235_2" arrivalPos="80.84" arrivalSpeed="15.10" duration="174.00" routeLength="2088.57" waitingTime="13.00" waitingCount="2" stopTime="0.00" timeLoss="38.57" rerouteNo="1" devices="vehroute_carIn75660:1 tripinfo_carIn75660:1 routing_carIn75660:1" vType="default_016" speedFactor="1.12" vaporized=""/>
    <tripinfo id="carIn7949:1" depart="57676.00" departLane="128361109#1_1" departPos="5.10" departSpeed="0.00" departDelay="2.10" arrival="57854.00" arrivalLane="386687235_1" arrivalPos="80.84" arrivalSpeed="14.08" duration="178.00" routeLength="2088.57" waitingTime="13.00" waitingCount="2" stopTime="0.00" timeLoss="37.04" rerouteNo="1" devices="vehroute_carIn7949:1 tripinfo_carIn7949:1 routing_carIn7949:1" vType="default_016" speedFactor="1.07" vaporized=""/>
    <tripinfo id="carIn767:1" depart="57620.00" departLane="124812856#0_1" departPos="5.10" departSpeed="0.00" departDelay="1.50" arrival="57855.00" arrivalLane="306240162#0_0" arrivalPos="220.43" arrivalSpeed="14.47" duration="235.00" routeLength="3049.32" waitingTime="0.00" waitingCount="0" stopTime="0.00" timeLoss="26.48" rerouteNo="1" devices="vehroute_carIn767:1 tripinfo_carIn767:1 routing_carIn767:1" vType="default_016" speedFactor="0.94" vaporized=""/>