<?xml version="1.0" encoding="UTF-8"?>

<!-- generated on 2025-05-20 16:23:04 by Eclipse SUMO sumo Version 1.20.0
<configuration xmlns:xsi="http://www.w3.org/2001/XMLSchema-instance" xsi:noNamespaceSchemaLocation="http://sumo.dlr.de/xsd/sumoConfiguration.xsd">

    <input>
        <net-file value="resco_benchmark\environments/ingolstadt21/ingolstadt21.net.xml"/>
        <route-files value="resco_benchmark\environments/ingolstadt21/ingolstadt21.rou.xml"/>
    </input>

    <output>
        <tripinfo-output value="C:\Users\skang\Desktop\최석환\강의\무인항공딥러닝개론\results\MAXPRESSURE-tr0-ingolstadt21-21-mplight-wait\tripinfo_55.xml"/>
        <tripinfo-output.write-unfinished value="true"/>
        <vehroute-output value="C:\Users\skang\Desktop\최석환\강의\무인항공딥러닝개론\results\MAXPRESSURE-tr0-ingolstadt21-21-mplight-wait\route_55.xml"/>
        <vehroute-output.sorted value="True"/>
        <vehroute-output.write-unfinished value="True"/>
        <collision-output value="C:\Users\skang\Desktop\최석환\강의\무인항공딥러닝개론\results\MAXPRESSURE-tr0-ingolstadt21-21-mplight-wait\coll_55.xml"/>
        <statistic-output value="C:\Users\skang\Desktop\최석환\강의\무인항공딥러닝개론\results\MAXPRESSURE-tr0-ingolstadt21-21-mplight-wait\stats_55.xml"/>
    </output>

    <time>
        <begin value="57600"/>
        <end value="61200"/>
    </time>

    <processing>
        <time-to-teleport value="-1"/>
    </processing>

    <report>
        <no-warnings value="True"/>
        <no-step-log value="True"/>
    </report>

    <traci_server>
        <remote-port value="59504"/>
    </traci_server>

    <random_number>
        <random value="true"/>
    </random_number>

</configuration>
-->

<tripinfos xmlns:xsi="http://www.w3.org/2001/XMLSchema-instance" xsi:noNamespaceSchemaLocation="http://sumo.dlr.de/xsd/tripinfo_file.xsd">
    <tripinfo id="h15454c2:3" depart="57612.00" departLane="24608844_1" departPos="5.10" departSpeed="0.00" departDelay="0.50" arrival="57651.00" arrivalLane="32978638#0_1" arrivalPos="49.29" arrivalSpeed="13.87" duration="39.00" routeLength="354.79" waitingTime="0.00" waitingCount="0" stopTime="0.00" timeLoss="5.84" rerouteNo="1" devices="vehroute_h15454c2:3 tripinfo_h15454c2:3 routing_h15454c2:3" vType="default_016" speedFactor="1.04" vaporized=""/>
    <tripinfo id="carIn60260:1" depart="57606.00" departLane="315358254#0_1" departPos="5.10" departSpeed="0.00" departDelay="0.90" arrival="57653.00" arrivalLane="399835085#1_1" arrivalPos="212.23" arrivalSpeed="8.90" duration="47.00" routeLength="430.98" waitingTime="0.00" waitingCount="0" stopTime="0.00" timeLoss="6.24" rerouteNo="1" devices="vehroute_carIn60260:1 tripinfo_carIn60260:1 routing_carIn60260:1" vType="default_016" speedFactor="1.14" vaporized=""/>
    <tripinfo id="carIn53971:1" depart="57640.00" departLane="272042143_1" departPos="5.10" departSpeed="0.00" departDelay="0.80" arrival="57686.00" arrivalLane="24634414#1_1" arrivalPos="162.19" arrivalSpeed="9.09" duration="46.00" routeLength="493.04" waitingTime="0.00" waitingCount="0" stopTime="0.00" timeLoss="8.27" rerouteNo="1" devices="vehroute_carIn53971:1 tripinfo_carIn53971:1 routing_carIn53971:1" vType="default_016" speedFactor="1.21" vaporized=""/>
    <tripinfo id="S5R_frequency1.2" depart="57615.00" departLane="315358250#0_1" departPos="12.10" departSpeed="0.00" departDelay="3.40" arrival="57710.00" arrivalLane="386687235_1" arrivalPos="80.84" arrivalSpeed="13.74" duration="95.00" routeLength="1115.62" waitingTime="0.00" waitingCount="0" stopTime="0.00" timeLoss="13.14" rerouteNo="1" devices="vehroute_S5R_frequency1.2 tripinfo_S5R_frequency1.2 routing_S5R_frequency1.2" vType="bus" speedFactor="1.00" vaporized=""/>
    <tripinfo id="h12244c1:3" depart="57612.00" departLane="315358244_1" departPos="5.10" departSpeed="0.00" departDelay="0.40" arrival="57718.00" arrivalLane="386687235_1" arrivalPos="80.84" arrivalSpeed="11.49" duration="106.00" routeLength="1186.14" waitingTime="0.00" waitingCount="0" stopTime="0.00" timeLoss="9.18" rerouteNo="1" devices="vehroute_h12244c1:3 tripinfo_h12244c1:3 routing_h12244c1:3" vType="default_016" speedFactor="0.89" vaporized=""/>
    <tripinfo id="h3688c1:1" depart="57625.00" departLane="201201950#1_1" departPos="5.10" departSpeed="0.00" departDelay="0.00" arrival="57719.00" arrivalLane="32978638#0_1" arrivalPos="49.29" arrivalSpeed="14.31" duration="94.00" routeLength="1089.75" waitingTime="5.00" waitingCount="1" stopTime="0.00" timeLoss="19.99" rerouteNo="1" devices="vehroute_h3688c1:1 tripinfo_h3688c1:1 routing_h3688c1:1" vType="default_016" speedFactor="1.08" vaporized=""/>
    <tripinfo id="h7800c1:5" depart="57696.00" departLane="-447569998#1_1" departPos="5.10" departSpeed="0.00" departDelay="0.00" arrival="57719.00" arrivalLane="-447569998#1_1" arrivalPos="180.76" arrivalSpeed="8.49" duration="23.00" routeLength="175.66" waitingTime="0.00" waitingCount="0" stopTime="0.00" timeLoss="3.37" rerouteNo="1" devices="vehroute_h7800c1:5 tripinfo_h7800c1:5 routing_h7800c1:5" vType="default_016" speedFactor="1.10" vaporized=""/>
    <tripinfo id="h3568c1:3" depart="57656.00" departLane="266565295#5_1" departPos="5.10" departSpeed="0.00" departDelay="0.80" arrival="57727.00" arrivalLane="-24634415_1" arrivalPos="62.03" arrivalSpeed="15.47" duration="71.00" routeLength="807.40" waitingTime="0.00" waitingCount="0" stopTime="0.00" timeLoss="13.53" rerouteNo="1" devices="vehroute_h3568c1:3 tripinfo_h3568c1:3 routing_h3568c1:3" vType="default_016" speedFactor="1.14" vaporized=""/>
    <tripinfo id="carIn22761:1" depart="57616.00" departLane="-306240162#1_0" departPos="5.10" departSpeed="0.00" departDelay="2.10" arrival="57729.00" arrivalLane="399835085#1_1" arrivalPos="212.23" arrivalSpeed="7.38" duration="113.00" routeLength="1093.26" waitingTime="8.00" waitingCount="1" stopTime="0.00" timeLoss="24.67" rerouteNo="1" devices="vehroute_carIn22761:1 tripinfo_carIn22761:1 routing_carIn22761:1" vType="default_016" speedFactor="0.89" vaporized=""/>
    <tripinfo id="h7181c1:1" depart="57660.00" departLane="315358254#0_1" departPos="5.10" departSpeed="0.00" departDelay="0.10" arrival="57731.00" arrivalLane="306240162#0_0" arrivalPos="220.43" arrivalSpeed="15.74" duration="71.00" routeLength="932.35" waitingTime="8.00" waitingCount="1" stopTime="0.00" timeLoss="19.56" rerouteNo="1" devices="vehroute_h7181c1:1 tripinfo_h7181c1:1 routing_h7181c1:1" vType="default_016" speedFactor="1.00" vaporized=""/>
    <tripinfo id="h9563c2:5" depart="57631.00" departLane="315358244_1" departPos="5.10" departSpeed="0.00" departDelay="0.70" arrival="57736.00" arrivalLane="386687235_1" arrivalPos="80.84" arrivalSpeed="12.33" duration="105.00" routeLength="1186.14" waitingTime="2.00" waitingCount="1" stopTime="0.00" timeLoss="13.36" rerouteNo="1" devices="vehroute_h9563c2:5 tripinfo_h9563c2:5 routing_h9563c2:5" vType="default_016" speedFactor="0.95" vaporized=""/>
    <tripinfo id="carIn80064:1" depart="57603.00" departLane="128361109#1_1" departPos="5.10" departSpeed="0.00" departDelay="0.40" arrival="57748.00" arrivalLane="-315358254#1_1" arrivalPos="137.16" arrivalSpeed="12.12" duration="145.00" routeLength="1587.97" waitingTime="17.00" waitingCount="2" stopTime="0.00" timeLoss="45.61" rerouteNo="1" devices="vehroute_carIn80064:1 tripinfo_carIn80064:1 routing_carIn80064:1" vType="default_016" speedFactor="0.89" vaporized=""/>
    <tripinfo id="carIn30817:1" depart="57681.00" departLane="315358244_1" departPos="5.10" departSpeed="0.00" departDelay="0.20" arrival="57749.00" arrivalLane="447569997#1_1" arrivalPos="180.93" arrivalSpeed="8.71" duration="68.00" routeLength="718.04" waitingTime="0.00" waitingCount="0" stopTime="0.00" timeLoss="10.64" rerouteNo="1" devices="vehroute_carIn30817:1 tripinfo_carIn30817:1 routing_carIn30817:1" vType="default_016" speedFactor="1.07" vaporized=""/>
    <tripinfo id="carIn107084:1" depart="57601.00" departLane="124812856#0_1" departPos="5.10" departSpeed="0.00" departDelay="0.70" arrival="57754.00" arrivalLane="-128361102#1_1" arrivalPos="274.68" arrivalSpeed="15.59" duration="153.00" routeLength="2232.46" waitingTime="0.00" waitingCount="0" stopTime="0.00" timeLoss="17.12" rerouteNo="1" devices="vehroute_carIn107084:1 tripinfo_carIn107084:1 routing_carIn107084:1" vType="default_016" speedFactor="1.20" vaporized=""/>
    <tripinfo id="h317c2:1" depart="57707.00" departLane="-32978638#0_1" departPos="5.10" departSpeed="0.00" departDelay="0.10" arrival="57756.00" arrivalLane="-266565295#5_1" arrivalPos="172.76" arrivalSpeed="12.82" duration="49.00" routeLength="370.53" waitingTime="10.00" waitingCount="1" stopTime="0.00" timeLoss="19.72" rerouteNo="1" devices="vehroute_h317c2:1 tripinfo_h317c2:1 routing_h317c2:1" vType="default_016" speedFactor="0.95" vaporized=""/>
    <tripinfo id="h3326c1:2" depart="57656.00" departLane="22716069#0_1" departPos="5.10" departSpeed="0.00" departDelay="0.00" arrival="57774.00" arrivalLane="24634517#13_1" arrivalPos="111.62" arrivalSpeed="12.71" duration="118.00" routeLength="1312.81" waitingTime="0.00" waitingCount="0" stopTime="0.00" timeLoss="15.14" rerouteNo="1" devices="vehroute_h3326c1:2 tripinfo_h3326c1:2 routing_h3326c1:2" vType="default_016" speedFactor="0.95" vaporized=""/>
    <tripinfo id="carIn118591:1" depart="57689.00" departLane="315358244_1" departPos="5.10" departSpeed="0.00" departDelay="0.20" arrival="57775.00" arrivalLane="386687235_1" arrivalPos="80.84" arrivalSpeed="15.22" duration="86.00" routeLength="1186.14" waitingTime="0.00" waitingCount="0" stopTime="0.00" timeLoss="8.11" rerouteNo="1" devices="vehroute_carIn118591:1 tripinfo_carIn118591:1 routing_carIn118591:1" vType="default_016" speedFactor="1.11" vaporized=""/>
    <tripinfo id="h645c1:1" depart="57622.00" departLane="266565295#5_1" departPos="5.10" departSpeed="0.00" departDelay="0.40" arrival="57778.00" arrivalLane="-315358244_1" arrivalPos="33.95" arrivalSpeed="12.70" duration="156.00" routeLength="1910.83" waitingTime="0.00" waitingCount="0" stopTime="0.00" timeLoss="11.51" rerouteNo="1" devices="vehroute_h645c1:1 tripinfo_h645c1:1 routing_h645c1:1" vType="default_016" speedFactor="0.96" vaporized=""/>
    <tripinfo id="carIn27009:1" depart="57673.00" departLane="-447569998#1_1" departPos="5.10" departSpeed="0.00" departDelay="0.50" arrival="57778.00" arrivalLane="-26677539_1" arrivalPos="152.75" arrivalSpeed="8.41" duration="105.00" routeLength="699.63" waitingTime="14.00" waitingCount="1" stopTime="0.00" timeLoss="30.84" rerouteNo="1" devices="vehroute_carIn27009:1 tripinfo_carIn27009:1 routing_carIn27009:1" vType="default_015" speedFactor="1.13" vaporized=""/>
    <tripinfo id="h3154c1:1" depart="57658.00" departLane="24634507_1" departPos="5.10" departSpeed="0.00" departDelay="0.00" arrival="57780.00" arrivalLane="-266565295#5_1" arrivalPos="172.76" arrivalSpeed="14.18" duration="122.00" routeLength="1206.22" waitingTime="12.00" waitingCount="2" stopTime="0.00" timeLoss="34.22" rerouteNo="1" devices="vehroute_h3154c1:1 tripinfo_h3154c1:1 routing_h3154c1:1" vType="default_016" speedFactor="1.03" vaporized=""/>
    <tripinfo id="h330c1:1" depart="57736.00" departLane="-32978638#0_1" departPos="5.10" departSpeed="0.00" departDelay="0.20" arrival="57786.00" arrivalLane="-266565295#5_1" arrivalPos="172.76" arrivalSpeed="12.65" duration="50.00" routeLength="370.53" waitingTime="12.00" waitingCount="1" stopTime="0.00" timeLoss="20.97" rerouteNo="1" devices="vehroute_h330c1:1 tripinfo_h330c1:1 routing_h330c1:1" vType="default_016" speedFactor="0.96" vaporized=""/>
    <tripinfo id="carIn86816:1" depart="57617.00" departLane="128361102#0_1" departPos="5.10" departSpeed="0.00" departDelay="0.80" arrival="57797.00" arrivalLane="201956811#0_1" arrivalPos="40.40" arrivalSpeed="12.53" duration="180.00" routeLength="2067.33" waitingTime="0.00" waitingCount="0" stopTime="0.00" timeLoss="17.77" rerouteNo="1" devices="vehroute_carIn86816:1 tripinfo_carIn86816:1 routing_carIn86816:1" vType="default_016" speedFactor="0.94" vaporized=""/>
    <tripinfo id="carIn107282:1" depart="57749.00" departLane="-447569998#1_1" departPos="5.10" departSpeed="0.00" departDelay="0.00" arrival="57801.00" arrivalLane="315358242#0_1" arrivalPos="165.37" arrivalSpeed="14.20" duration="52.00" routeLength="448.50" waitingTime="4.00" waitingCount="1" stopTime="0.00" timeLoss="11.33" rerouteNo="1" devices="vehroute_carIn107282:1 tripinfo_carIn107282:1 routing_carIn107282:1" vType="default_016" speedFactor="1.04" vaporized=""/>
    <tripinfo id="h5979c1:5" depart="57669.00" departLane="399835085#1_1" departPos="5.10" departSpeed="0.00" departDelay="0.00" arrival="57804.00" arrivalLane="-315358254#1_1" arrivalPos="137.16" arrivalSpeed="13.52" duration="135.00" routeLength="659.33" waitingTime="46.00" waitingCount="1" stopTime="0.00" timeLoss="61.88" rerouteNo="1" devices="vehroute_h5979c1:5 tripinfo_h5979c1:5 routing_h5979c1:5" vType="default_016" speedFactor="1.01" vaporized=""/>
    <tripinfo id="carIn12365:1" depart="57713.00" departLane="315358244_1" departPos="5.10" departSpeed="0.00" departDelay="0.50" arrival="57806.00" arrivalLane="447569997#1_1" arrivalPos="180.93" arrivalSpeed="6.67" duration="93.00" routeLength="718.04" waitingTime="9.00" waitingCount="1" stopTime="0.00" timeLoss="19.84" rerouteNo="1" devices="vehroute_carIn12365:1 tripinfo_carIn12365:1 routing_carIn12365:1" vType="default_016" speedFactor="0.84" vaporized=""/>
    <tripinfo id="carIn129809:1" depart="57729.00" departLane="-447569998#1_1" departPos="5.10" departSpeed="0.00" departDelay="1.00" arrival="57812.00" arrivalLane="-315358244_1" arrivalPos="33.95" arrivalSpeed="12.20" duration="83.00" routeLength="706.49" waitingTime="6.00" waitingCount="1" stopTime="0.00" timeLoss="17.47" rerouteNo="1" devices="vehroute_carIn129809:1 tripinfo_carIn129809:1 routing_carIn129809:1" vType="default_015" speedFactor="0.92" vaporized=""/>
    <tripinfo id="carIn82220:1" depart="57619.00" departLane="-306240162#1_0" departPos="5.10" departSpeed="0.00" departDelay="3.50" arrival="57813.00" arrivalLane="386687235_1" arrivalPos="80.84" arrivalSpeed="14.37" duration="194.00" routeLength="2257.41" waitingTime="12.00" waitingCount="1" stopTime="0.00" timeLoss="57.66" rerouteNo="1" devices="vehroute_carIn82220:1 tripinfo_carIn82220:1 routing_carIn82220:1" vType="default_016" speedFactor="1.10" vaporized=""/>
    <tripinfo id="carIn462:1" depart="57622.00" departLane="-306240162#1_0" departPos="5.10" departSpeed="0.00" departDelay="4.80" arrival="57813.00" arrivalLane="386687235_2" arrivalPos="80.84" arrivalSpeed="13.16" duration="191.00" routeLength="2257.41" waitingTime="6.00" waitingCount="2" stopTime="0.00" timeLoss="48.38" rerouteNo="1" devices="vehroute_carIn462:1 tripinfo_carIn462:1 routing_carIn462:1" vType="default_016" speedFactor="1.04" vaporized=""/>
    <tripinfo id="carIn102915:1" depart="57643.00" departLane="128361102#0_1" departPos="5.10" departSpeed="0.00" departDelay="0.40" arrival="57815.00" arrivalLane="201956811#0_1" arrivalPos="40.40" arrivalSpeed="12.94" duration="172.00" routeLength="2067.33" waitingTime="0.00" waitingCount="0" stopTime="0.00" timeLoss="16.74" rerouteNo="1" devices="vehroute_carIn102915:1 tripinfo_carIn102915:1 routing_carIn102915:1" vType="default_016" speedFactor="0.98" vaporized=""/>
    <tripinfo id="carIn116184:1" depart="57627.00" departLane="-306240162#1_0" departPos="5.10" departSpeed="0.00" departDelay="0.10" arrival="57816.00" arrivalLane="386687235_2" arrivalPos="80.84" arrivalSpeed="13.52" duration="189.00" routeLength="2257.41" waitingTime="3.00" waitingCount="1" stopTime="0.00" timeLoss="47.99" rerouteNo="1" devices="vehroute_carIn116184:1 tripinfo_carIn116184:1 routing_carIn116184:1" vType="default_016" speedFactor="1.06" vaporized=""/>
    <tripinfo id="carIn48184:1" depart="57613.00" departLane="-306240162#1_0" departPos="5.10" departSpeed="0.00" departDelay="0.70" arrival="57817.00" arrivalLane="386687235_1" arrivalPos="80.84" arrivalSpeed="10.76" duration="204.00" routeLength="2257.41" waitingTime="6.00" waitingCount="1" stopTime="0.00" timeLoss="29.75" rerouteNo="1" devices="vehroute_carIn48184:1 tripinfo_carIn48184:1 routing_carIn48184:1" vType="default_016" speedFactor="0.86" vaporized=""/>
    <tripinfo id="carIn31257:1" depart="57630.00" departLane="-306240162#1_0" departPos="5.10" departSpeed="0.00" departDelay="1.60" arrival="57817.00" arrivalLane="386687235_2" arrivalPos="80.84" arrivalSpeed="15.19" duration="187.00" routeLength="2257.41" waitingTime="10.00" waitingCount="1" stopTime="0.00" timeLoss="55.92" rerouteNo="1" devices="vehroute_carIn31257:1 tripinfo_carIn31257:1 routing_carIn31257:1" vType="default_016" speedFactor="1.13" vaporized=""/>
    <tripinfo id="carIn12858:1" depart="57661.00" departLane="128361109#1_1" departPos="5.10" departSpeed="0.00" departDelay="0.90" arrival="57818.00" arrivalLane="399835085#1_1" arrivalPos="212.23" arrivalSpeed="8.64" duration="157.00" routeLength="1738.12" waitingTime="21.00" waitingCount="3" stopTime="0.00" timeLoss="57.85" rerouteNo="1" devices="vehroute_carIn12858:1 tripinfo_carIn12858:1 routing_carIn12858:1" vType="default_016" speedFactor="1.17" vaporized=""/>
    <tripinfo id="h16072c2:3" depart="57663.00" departLane="315358254#0_1" departPos="5.10" departSpeed="0.00" departDelay="2.50" arrival="57818.00" arrivalLane="386687235_1" arrivalPos="80.84" arrivalSpeed="13.58" duration="155.00" routeLength="1611.92" waitingTime="0.00" waitingCount="0" stopTime="0.00" timeLoss="45.54" rerouteNo="1" devices="vehroute_h16072c2:3 tripinfo_h16072c2:3 routing_h16072c2:3" vType="default_016" speedFactor="1.08" vaporized=""/>
    <tripinfo id="carIn77943:1" depart="57608.00" departLane="124812856#0_1" departPos="5.10" departSpeed="0.00" departDelay="2.50" arrival="57819.00" arrivalLane="-128361102#1_1" arrivalPos="274.68" arrivalSpeed="10.63" duration="211.00" routeLength="2250.49" waitingTime="0.00" waitingCount="0" stopTime="0.00" timeLoss="17.81" rerouteNo="1" devices="vehroute_carIn77943:1 tripinfo_carIn77943:1 routing_carIn77943:1" vType="default_016" speedFactor="0.85" vaporized=""/>
    <tripinfo id="randUni33724:1" depart="57646.00" departLane="128361102#0_1" departPos="5.10" departSpeed="0.00" departDelay="1.20" arrival="57820.00" arrivalLane="201956811#0_1" arrivalPos="40.40" arrivalSpeed="13.27" duration="174.00" routeLength="2067.33" waitingTime="0.00" waitingCount="0" stopTime="0.00" timeLoss="18.61" rerouteNo="1" devices="vehroute_randUni33724:1 tripinfo_randUni33724:1 routing_randUni33724:1" vType="random_016" speedFactor="0.97" vaporized=""/>
    <tripinfo id="carIn81046:1" depart="57611.00" departLane="124812856#0_1" departPos="5.10" departSpeed="0.00" departDelay="2.50" arrival="57821.00" arrivalLane="-128361102#1_1" arrivalPos="274.68" arrivalSpeed="12.43" duration="210.00" routeLength="2250.49" waitingTime="0.00" waitingCount="0" stopTime="0.00" timeLoss="41.47" rerouteNo="1" devices="vehroute_carIn81046:1 tripinfo_carIn81046:1 routing_carIn81046:1" vType="default_016" speedFactor="0.98" vaporized=""/>
    <tripinfo id="carIn77438:1" depart="57614.00" departLane="124812856#0_1" departPos="5.10" departSpeed="0.00" departDelay="1.10" arrival="57822.00" arrivalLane="-128361102#1_1" arrivalPos="274.68" arrivalSpeed="14.80" duration="208.00" routeLength="2250.49" waitingTime="0.00" waitingCount="0" stopTime="0.00" timeLoss="54.57" rerouteNo="1" devices="vehroute_carIn77438:1 tripinfo_carIn77438:1 routing_carIn77438:1" vType="default_016" speedFactor="1.07" vaporized=""/>
    <tripinfo id="carIn100288:1" depart="57664.00" departLane="128361102#0_1" departPos="5.10" departSpeed="0.00" departDelay="0.60" arrival="57823.00" arrivalLane="201956811#0_1" arrivalPos="40.40" arrivalSpeed="13.92" duration="159.00" routeLength="2067.33" waitingTime="0.00" waitingCount="0" stopTime="0.00" timeLoss="30.68" rerouteNo="1" devices="vehroute_carIn100288:1 tripinfo_carIn100288:1 routing_carIn100288:1" vType="default_016" speedFactor="1.18" vaporized=""/>
    <tripinfo id="h19804c1:3" depart="57617.00" departLane="124812856#0_1" departPos="5.10" departSpeed="0.00" departDelay="1.50" arrival="57824.00" arrivalLane="-128361102#1_1" arrivalPos="274.68" arrivalSpeed="12.96" duration="207.00" routeLength="2250.49" waitingTime="0.00" waitingCount="0" stopTime="0.00" timeLoss="39.34" rerouteNo="1" devices="vehroute_h19804c1:3 tripinfo_h19804c1:3 routing_h19804c1:3" vType="default_016" speedFactor="0.98" vaporized=""/>
    <tripinfo id="carIn3969:1" depart="57629.00" departLane="124812856#0_1" departPos="5.10" departSpeed="0.00" departDelay="5.30" arrival="57826.00" arrivalLane="-128361102#1_1" arrivalPos="274.68" arrivalSpeed="16.13" duration="197.00" routeLength="2232.46" waitingTime="0.00" waitingCount="0" stopTime="0.00" timeLoss="57.16" rerouteNo="1" devices="vehroute_carIn3969:1 tripinfo_carIn3969:1 routing_carIn3969:1" vType="default_016" speedFactor="1.17" vaporized=""/>
    <tripinfo id="carIn12152:1" depart="57647.00" departLane="24599188#0.94_1" departPos="5.10" departSpeed="0.00" departDelay="0.50" arrival="57826.00" arrivalLane="-315358254#1_1" arrivalPos="137.16" arrivalSpeed="14.71" duration="179.00" routeLength="2034.31" waitingTime="13.00" waitingCount="1" stopTime="0.00" timeLoss="33.07" rerouteNo="1" devices="vehroute_carIn12152:1 tripinfo_carIn12152:1 routing_carIn12152:1" vType="default_016" speedFactor="1.08" vaporized=""/>
    <tripinfo id="carIn82278:1" depart="57702.00" departLane="-306240162#1_0" departPos="5.10" departSpeed="0.00" departDelay="0.70" arrival="57828.00" arrivalLane="399835085#1_1" arrivalPos="212.23" arrivalSpeed="7.34" duration="126.00" routeLength="1093.26" waitingTime="11.00" waitingCount="2" stopTime="0.00" timeLoss="44.55" rerouteNo="1" devices="vehroute_carIn82278:1 tripinfo_carIn82278:1 routing_carIn82278:1" vType="default_016" speedFactor="0.96" vaporized=""/>
    <tripinfo id="carIn50326:1" depart="57651.00" departLane="128361102#0_1" departPos="5.10" departSpeed="0.00" departDelay="0.30" arrival="57829.00" arrivalLane="18809673#0_1" arrivalPos="473.56" arrivalSpeed="11.41" duration="178.00" routeLength="1591.07" waitingTime="4.00" waitingCount="1" stopTime="0.00" timeLoss="24.27" rerouteNo="1" devices="vehroute_carIn50326:1 tripinfo_carIn50326:1 routing_carIn50326:1" vType="default_016" speedFactor="0.84" vaporized=""/>
    <tripinfo id="h17549c1:1" depart="57680.00" departLane="-447569998#1_1" departPos="5.10" departSpeed="0.00" departDelay="0.00" arrival="57830.00" arrivalLane="-315358254#1_1" arrivalPos="137.16" arrivalSpeed="14.20" duration="150.00" routeLength="1746.60" waitingTime="7.00" waitingCount="1" stopTime="0.00" timeLoss="24.06" rerouteNo="1" devices="vehroute_h17549c1:1 tripinfo_h17549c1:1 routing_h17549c1:1" vType="default_016" speedFactor="1.09" vaporized=""/>
    <tripinfo id="carIn101568:1" depart="57638.00" departLane="-306240162#1_0" departPos="5.10" departSpeed="0.00" departDelay="0.50" arrival="57834.00" arrivalLane="386687235_1" arrivalPos="80.84" arrivalSpeed="12.57" duration="196.00" routeLength="2257.41" waitingTime="6.00" waitingCount="1" stopTime="0.00" timeLoss="33.51" rerouteNo="1" devices="vehroute_carIn101568:1 tripinfo_carIn101568:1 routing_carIn101568:1" vType="default_016" speedFactor="0.92" vaporized=""/>
    <tripinfo id="h5216c1:1" depart="57664.00" departLane="224892339#0_1" departPos="5.10" departSpeed="0.00" departDelay="0.00" arrival="57834.00" arrivalLane="386687235_2" arrivalPos="80.84" arrivalSpeed="15.17" duration="170.00" routeLength="1823.78" waitingTime="8.00" waitingCount="1" stopTime="0.00" timeLoss="52.92" rerouteNo="1" devices="vehroute_h5216c1:1 tripinfo_h5216c1:1 routing_h5216c1:1" vType="default_016" speedFactor="1.10" vaporized=""/>
    <tripinfo id="carIn107842:1" depart="57623.00" departLane="124812856#0_1" departPos="5.10" departSpeed="0.00" departDelay="1.90" arrival="57836.00" arrivalLane="-128361102#1_1" arrivalPos="274.68" arrivalSpeed="11.37" duration="213.00" routeLength="2250.49" waitingTime="0.00" waitingCount="0" stopTime="0.00" timeLoss="19.71" rerouteNo="1" devices="vehroute_carIn107842:1 tripinfo_carIn107842:1 routing_carIn107842:1" vType="default_016" speedFactor="0.85" vaporized=""/>
    <tripinfo id="50R_frequency3.17" depart="57674.00" departLane="-18809673#6_1" departPos="12.10" departSpeed="0.00" departDelay="0.70" arrival="57836.00" arrivalLane="201956811#0_1" arrivalPos="40.40" arrivalSpeed="12.76" duration="162.00" routeLength="1954.47" waitingTime="0.00" waitingCount="0" stopTime="0.00" timeLoss="16.94" rerouteNo="1" devices="vehroute_50R_frequency3.17 tripinfo_50R_frequency3.17 routing_50R_frequency3.17" vType="bus" speedFactor="1.00" vaporized=""/>
    <tripinfo id="carIn81860:1" depart="57712.00" departLane="128361102#0_1" departPos="5.10" departSpeed="0.00" departDelay="0.60" arrival="57836.00" arrivalLane="-24634517#17_1" arrivalPos="6.43" arrivalSpeed="6.80" duration="124.00" routeLength="1229.64" waitingTime="10.00" waitingCount="1" stopTime="0.00" timeLoss="26.80" rerouteNo="1" devices="vehroute_carIn81860:1 tripinfo_carIn81860:1 routing_carIn81860:1" vType="default_016" speedFactor="0.92" vaporized=""/>
    <tripinfo id="h15382c1:3" depart="57626.00" departLane="124812856#0_1" departPos="5.10" departSpeed="0.00" departDelay="3.80" arrival="57838.00" arrivalLane="-128361102#1_1" arrivalPos="274.68" arrivalSpeed="13.85" duration="212.00" routeLength="2250.49" waitingTime="0.00" waitingCount="0" stopTime="0.00" timeLoss="51.85" rerouteNo="1" devices="vehroute_h15382c1:3 tripinfo_h15382c1:3 routing_h15382c1:3" vType="default_016" speedFactor="1.03" vaporized=""/>
    <tripinfo id="carIn56649:1" depart="57632.00" departLane="124812856#0_1" departPos="5.10" departSpeed="0.00" departDelay="8.10" arrival="57840.00" arrivalLane="-128361102#1_1" arrivalPos="274.68" arrivalSpeed="13.09" duration="208.00" routeLength="2250.49" waitingTime="0.00" waitingCount="0" stopTime="0.00" timeLoss="40.39" rerouteNo="1" devices="vehroute_carIn56649:1 tripinfo_carIn56649:1 routing_carIn56649:1" vType="default_016" speedFactor="0.98" vaporized=""/>
    <tripinfo id="carIn28951:1" depart="57606.00" departLane="10425609#0_1" departPos="5.10" departSpeed="0.00" departDelay="0.20" arrival="57841.00" arrivalLane="-128361102#1_1" arrivalPos="274.68" arrivalSpeed="13.71" duration="235.00" routeLength="2113.04" waitingTime="38.00" waitingCount="1" stopTime="0.00" timeLoss="84.48" rerouteNo="1" devices="vehroute_carIn28951:1 tripinfo_carIn28951:1 routing_carIn28951:1" vType="default_016" speedFactor="1.03" vaporized=""/>
    <tripinfo id="h3864c1:3" depart="57678.00" departLane="24693977#1_1" departPos="5.10" departSpeed="0.00" departDelay="0.00" arrival="57842.00" arrivalLane="201956820_2" arrivalPos="48.33" arrivalSpeed="12.36" duration="164.00" routeLength="1574.85" waitingTime="0.00" waitingCount="0" stopTime="0.00" timeLoss="23.74" rerouteNo="1" devices="vehroute_h3864c1:3 tripinfo_h3864c1:3 routing_h3864c1:3" vType="default_016" speedFactor="0.93" vaporized=""/>
    <tripinfo id="h20540c1:1" depart="57634.00" departLane="10425609#0_1" departPos="5.10" departSpeed="0.00" departDelay="0.50" arrival="57843.00" arrivalLane="-128361102#1_1" arrivalPos="274.68" arrivalSpeed="14.72" duration="209.00" routeLength="2113.04" waitingTime="11.00" waitingCount="1" stopTime="0.00" timeLoss="65.14" rerouteNo="1" devices="vehroute_h20540c1:1 tripinfo_h20540c1:1 routing_h20540c1:1" vType="default_016" speedFactor="1.08" vaporized=""/>
    <tripinfo id="carIn17767:1" depart="57638.00" departLane="124812856#0_1" departPos="5.10" departSpeed="0.00" departDelay="10.80" arrival="57848.00" arrivalLane="-128361102#1_1" arrivalPos="274.68" arrivalSpeed="13.61" duration="210.00" routeLength="2250.49" waitingTime="8.00" waitingCount="1" stopTime="0.00" timeLoss="44.79" rerouteNo="1" devices="vehroute_carIn17767:1 tripinfo_carIn17767:1 routing_carIn17767:1" vType="default_016" speedFactor="0.99" vaporized=""/>
    <tripinfo id="randUni10474:1" depart="57605.00" departLane="124812856#0_1" departPos="5.10" departSpeed="0.00" departDelay="0.20" arrival="57852.00" arrivalLane="306240162#0_0" arrivalPos="220.43" arrivalSpeed="15.94" duration="247.00" routeLength="3049.32" waitingTime="11.00" waitingCount="1" stopTime="0.00" timeLoss="45.42" rerouteNo="1" devices="vehroute_randUni10474:1 tripinfo_randUni10474:1 routing_randUni10474:1" vType="random_016" speedFactor="0.98" vaporized=""/>
    <tripinfo id="carIn29531:1" depart="57667.00" departLane="128361102#0_1" departPos="5.10" departSpeed="0.00" departDelay="1.60" arrival="57852.00" arrivalLane="201956811#0_1" arrivalPos="40.40" arrivalSpeed="12.90" duration="185.00" routeLength="2067.33" waitingTime="3.00" waitingCount="1" stopTime="0.00" timeLoss="26.75" rerouteNo="1" devices="vehroute_carIn29531:1 tripinfo_carIn29531:1 routing_carIn29531:1" vType="default_016" speedFactor="0.96" vaporized=""/>
    <tripinfo id="randUni31145:1" depart="57815.00" departLane="10425609#0_1" departPos="5.10" departSpeed="0.00" departDelay="1.30" arrival="57852.00" arrivalLane="201956810_1" arrivalPos="71.65" arrivalSpeed="16.27" duration="37.00" routeLength="255.78" waitingTime="8.00" waitingCount="1" stopTime="0.00" timeLoss="19.83" rerouteNo="1" devices="vehroute_randUni31145:1 tripinfo_randUni31145:1 routing_randUni31145:1" vType="random_016" speedFactor="1.20" vaporized=""/>
    <tripinfo id="carIn85747:1" depart="57673.00" departLane="128361109#1_1" departPos="5.10" departSpeed="0.00" departDelay="0.70" arrival="57853.00" arrivalLane="386687235_1" arrivalPos="80.84" arrivalSpeed="13.98" duration="180.00" routeLength="2088.57" waitingTime="16.00" waitingCount="2" stopTime="0.00" timeLoss="37.60" rerouteNo="1" devices="vehroute_carIn85747:1 tripinfo_carIn85747:1 routing_carIn85747:1" vType="default_016" speedFactor="1.06" vaporized=""/>